LAMMPS data file via write_data, version 5 Jun 2019, timestep = 400000000

7000 atoms
4 atom types
7291 bonds
3 bond types
6600 angles
2 angle types

-5.0000000000000000e+02 5.0000000000000000e+02 xlo xhi
-5.0000000000000000e+02 5.0000000000000000e+02 ylo yhi
-5.0000000000000000e+02 5.0000000000000000e+02 zlo zhi

Masses

1 1000
2 1000
3 1000
4 1000

Pair Coeffs # lj/cut

1 0.296 10
2 0.296 10
3 0.296 10
4 0.296 10

Angle Coeffs # cosine

1 2
2 2

Atoms # full

2239 64 2 0.0000000000000000e+00 -4.7551974126978372e+01 -2.1048582616285344e+01 -1.8389259902626250e+02 0 0 0
2240 64 2 0.0000000000000000e+00 -4.3167207334314597e+01 -2.8637645612378435e+01 -1.8961560896319034e+02 0 0 0
1635 47 1 0.0000000000000000e+00 -1.9922319654252501e+01 -3.4899980303203449e+01 -1.6685134051284450e+02 0 0 0
1636 47 2 0.0000000000000000e+00 -1.9015724856881544e+01 -4.4411928139112526e+01 -1.6968970787113719e+02 0 0 0
3023 87 2 0.0000000000000000e+00 -3.3538129452507590e+01 -2.5205383004649782e+01 -1.7187018212976798e+02 0 0 0
3022 87 2 0.0000000000000000e+00 -2.4283585968733060e+01 -2.3753116442747555e+01 -1.6870711015234087e+02 0 0 0
2238 64 2 0.0000000000000000e+00 -4.6709455612795516e+01 -1.7147491247207849e+01 -1.7514368930526186e+02 0 0 0
2237 64 1 0.0000000000000000e+00 -4.6782983692201903e+01 -1.2491354693842583e+01 -1.6696037883864790e+02 0 0 0
2100 60 2 0.0000000000000000e+00 -2.3165306432828729e+01 -6.9337811199040758e+01 -1.6010256430118361e+02 0 0 0
2099 60 2 0.0000000000000000e+00 -2.2807265962281534e+01 -6.0013732889837364e+01 -1.6342518594045134e+02 0 0 0
1638 47 2 0.0000000000000000e+00 -2.0168409556986280e+01 -5.2307396339713470e+01 -1.5512260411382582e+02 0 0 0
2553 73 2 0.0000000000000000e+00 -7.0502284703227872e+01 -4.2962871593771567e+01 -1.5446337703912496e+02 0 0 0
2554 73 2 0.0000000000000000e+00 -6.0703340642402011e+01 -4.4787181959581090e+01 -1.5515385830640895e+02 0 0 0
4727 136 4 0.0000000000000000e+00 -4.2270613383353648e+01 -3.4382744984967111e+01 -1.6449748268074666e+02 0 0 0
4728 136 4 0.0000000000000000e+00 -3.5732288894270788e+01 -4.2034574855502861e+01 -1.6372588481944740e+02 0 0 0
4729 136 3 0.0000000000000000e+00 -2.6722428582342452e+01 -4.1761113619693866e+01 -1.6120636877483474e+02 0 0 0
4730 136 4 0.0000000000000000e+00 -1.8350884373337482e+01 -4.0273191296971838e+01 -1.5660108668360769e+02 0 0 0
4745 136 4 0.0000000000000000e+00 -5.9839939091427176e+01 -2.4922766511423468e+01 -1.5427969716331421e+02 0 0 0
4726 136 4 0.0000000000000000e+00 -4.7526908199627265e+01 -2.6665909164876187e+01 -1.6476507772444796e+02 0 0 0
6504 186 4 0.0000000000000000e+00 -4.7028397131360300e+01 -3.1117734555788644e+01 -1.5480370543539505e+02 0 0 0
3024 87 2 0.0000000000000000e+00 -3.8474649355405582e+01 -1.8406370931302838e+01 -1.6664505309164241e+02 0 0 0
6505 186 4 0.0000000000000000e+00 -3.9190116646171965e+01 -2.5145262675780085e+01 -1.5344619637231531e+02 0 0 0
1634 47 2 0.0000000000000000e+00 -2.5479643968444535e+01 -3.1845589721244028e+01 -1.5868096952136506e+02 0 0 0
6506 186 4 0.0000000000000000e+00 -2.9595953014679658e+01 -2.2821592687824928e+01 -1.5531148030632139e+02 0 0 0
4744 136 4 0.0000000000000000e+00 -5.5032456624423254e+01 -1.7960452341969141e+01 -1.5931836351666141e+02 0 0 0
4743 136 3 0.0000000000000000e+00 -5.2962000612384465e+01 -8.0380009221861020e+00 -1.5913787565287956e+02 0 0 0
3025 87 2 0.0000000000000000e+00 -3.5417778669791609e+01 -9.3559520300125758e+00 -1.6320101773688586e+02 0 0 0
2236 64 2 0.0000000000000000e+00 -4.2887293306069196e+01 -1.4732003152089492e+01 -1.5787397912930822e+02 0 0 0
3026 87 2 0.0000000000000000e+00 -3.4962112940843333e+01 -7.3863428326371325e+00 -1.5294657350942938e+02 0 0 0
3021 87 1 0.0000000000000000e+00 -2.0351121820294896e+01 -1.6812869736919911e+01 -1.6254891106933633e+02 0 0 0
3020 87 2 0.0000000000000000e+00 -1.8656387806417275e+01 -9.4871556771311543e+00 -1.5582642286073943e+02 0 0 0
4742 136 4 0.0000000000000000e+00 -5.1256007359693875e+01 1.4447053745804173e+00 -1.6052775716347654e+02 0 0 0
3019 87 2 0.0000000000000000e+00 -2.1010985457794899e+01 -2.9908787911338858e-01 -1.5319247190702993e+02 0 0 0
5908 169 4 0.0000000000000000e+00 -6.2501035636994757e+01 1.8004212776495446e+01 -1.5986416638388911e+02 0 0 0
5909 169 4 0.0000000000000000e+00 -7.2148307796499481e+01 1.4793373722502317e+01 -1.5873828423410146e+02 0 0 0
4741 136 4 0.0000000000000000e+00 -4.9855676193710821e+01 1.0123749629379857e+01 -1.6546628023545802e+02 0 0 0
4740 136 4 0.0000000000000000e+00 -4.1706387864403268e+01 1.4389965396630167e+01 -1.6240591415627964e+02 0 0 0
4739 136 4 0.0000000000000000e+00 -3.3030709096388911e+01 1.9377109226790054e+01 -1.5892371793616383e+02 0 0 0
4738 136 4 0.0000000000000000e+00 -2.3751018875914411e+01 1.5774699854538719e+01 -1.6069773065501383e+02 0 0 0
566 17 2 0.0000000000000000e+00 -8.4243047909194246e+01 3.5302903554464429e+01 -1.5667157395263925e+02 0 0 0
5425 155 4 0.0000000000000000e+00 -7.1865981308872662e+01 2.6251382540672513e+01 -1.5846612477709823e+02 0 0 0
5907 169 4 0.0000000000000000e+00 -5.7113137796008587e+01 2.6471058907762853e+01 -1.5961077395552928e+02 0 0 0
581 17 2 0.0000000000000000e+00 -4.1520281995587453e+01 3.4529933301992635e+01 -1.6001274754249934e+02 0 0 0
1625 47 2 0.0000000000000000e+00 -2.2961973544463838e+01 2.7522202539637160e+01 -1.5661065116843460e+02 0 0 0
2096 60 2 0.0000000000000000e+00 -1.9114546029543110e+01 -7.8704103647380890e+01 -1.4537445640532906e+02 0 0 0
2228 64 2 0.0000000000000000e+00 -2.3297229838601204e+01 -6.5738019402192094e+01 -1.4674428472902144e+02 0 0 0
2555 73 2 0.0000000000000000e+00 -5.1707424233190515e+01 -4.6698573273592174e+01 -1.5087445454978138e+02 0 0 0
2230 64 1 0.0000000000000000e+00 -3.5977531704026852e+01 -5.1898947686291834e+01 -1.4613001777035606e+02 0 0 0
2229 64 2 0.0000000000000000e+00 -3.0250743805115825e+01 -5.9128549332587021e+01 -1.5057125529921714e+02 0 0 0
4541 130 4 0.0000000000000000e+00 -2.5887546071057574e+01 -5.4111296982130170e+01 -1.4095681312966681e+02 0 0 0
1639 47 2 0.0000000000000000e+00 -2.6133681386932221e+01 -4.6004480744707635e+01 -1.4947803960724775e+02 0 0 0
6499 186 4 0.0000000000000000e+00 -8.8115330148423183e+01 -3.7749971878698375e+01 -1.4314929965258216e+02 0 0 0
2552 73 1 0.0000000000000000e+00 -7.9926073044793156e+01 -4.1489409714545097e+01 -1.5151683858405642e+02 0 0 0
6500 186 3 0.0000000000000000e+00 -7.9434150918938826e+01 -4.2179778989712197e+01 -1.4042689238720180e+02 0 0 0
2551 73 2 0.0000000000000000e+00 -7.9997405880184502e+01 -3.2866853990464165e+01 -1.4575492833084601e+02 0 0 0
6501 186 4 0.0000000000000000e+00 -6.9534418053774104e+01 -4.1722096312309780e+01 -1.4146584565335192e+02 0 0 0
6502 186 4 0.0000000000000000e+00 -6.0575672033508482e+01 -3.7920424561920548e+01 -1.4237886665368319e+02 0 0 0
6503 186 4 0.0000000000000000e+00 -5.5381199698546233e+01 -3.4380252274847990e+01 -1.5032665504156088e+02 0 0 0
2232 64 2 0.0000000000000000e+00 -4.6666378630064450e+01 -3.5677026562925001e+01 -1.4425986193171482e+02 0 0 0
2231 64 2 0.0000000000000000e+00 -3.9981251385425267e+01 -4.3164761289212919e+01 -1.4217231098019508e+02 0 0 0
1640 47 2 0.0000000000000000e+00 -2.1691806272967757e+01 -4.2051184416634570e+01 -1.4114039816353858e+02 0 0 0
1633 47 2 0.0000000000000000e+00 -2.9763256827582993e+01 -3.4264351283344823e+01 -1.4931042446190293e+02 0 0 0
2522 73 2 0.0000000000000000e+00 -1.2351761716963648e+02 -1.8466028780624931e+01 -1.4527119185295842e+02 0 0 0
6497 186 4 0.0000000000000000e+00 -1.0094165992863091e+02 -2.3127304341307141e+01 -1.4795904531731051e+02 0 0 0
6498 186 4 0.0000000000000000e+00 -9.5720183411884747e+01 -3.1076943768996532e+01 -1.4576318008896823e+02 0 0 0
2928 84 2 0.0000000000000000e+00 -8.5737381363158818e+01 -2.0844107953156715e+01 -1.4790186838097597e+02 0 0 0
2550 73 2 0.0000000000000000e+00 -7.5684601619152374e+01 -2.4232441329966495e+01 -1.4322487869355896e+02 0 0 0
2927 84 2 0.0000000000000000e+00 -8.4644673187964457e+01 -2.5502707181986636e+01 -1.3949498639031427e+02 0 0 0
4746 136 4 0.0000000000000000e+00 -6.4604180475925745e+01 -2.9032150884664844e+01 -1.4638941336558739e+02 0 0 0
2233 64 2 0.0000000000000000e+00 -4.8890757704976153e+01 -2.6754652890114222e+01 -1.4024282198654149e+02 0 0 0
1632 47 2 0.0000000000000000e+00 -3.4003204928216050e+01 -2.9592175441533250e+01 -1.4156419042979186e+02 0 0 0
6507 186 3 0.0000000000000000e+00 -2.0397033514257195e+01 -2.1239401794922738e+01 -1.5113940555085330e+02 0 0 0
3029 87 2 0.0000000000000000e+00 -2.3130492230837131e+01 -3.0015572337881419e+01 -1.3906476682435752e+02 0 0 0
3028 87 1 0.0000000000000000e+00 -2.6398005259000971e+01 -2.0879079612129786e+01 -1.4165137653682157e+02 0 0 0
2521 73 2 0.0000000000000000e+00 -1.1509283782912091e+02 -1.4989309406840587e+01 -1.4891857824069322e+02 0 0 0
6496 186 4 0.0000000000000000e+00 -1.0479443697882601e+02 -1.7800446697579567e+01 -1.4049440504490650e+02 0 0 0
2929 84 2 0.0000000000000000e+00 -9.3410572078290897e+01 -1.5018853116394784e+01 -1.4452501826516001e+02 0 0 0
2234 64 2 0.0000000000000000e+00 -4.9271870284122208e+01 -1.7261571649977871e+01 -1.4159862452813934e+02 0 0 0
2235 64 2 0.0000000000000000e+00 -4.2748852907646970e+01 -1.3457421077589908e+01 -1.4822529723369104e+02 0 0 0
3027 87 2 0.0000000000000000e+00 -3.0964996126736285e+01 -1.4062514348868852e+01 -1.4701852347664010e+02 0 0 0
6265 179 4 0.0000000000000000e+00 -1.1224305231152917e+02 -5.6737910256704750e-02 -1.5106274369563300e+02 0 0 0
6264 179 4 0.0000000000000000e+00 -1.0971655654109821e+02 5.0213492617209909e-01 -1.4116802381197343e+02 0 0 0
5541 159 3 0.0000000000000000e+00 -3.7098438111323233e+01 5.8013225139119111e+00 -1.4109703919160165e+02 0 0 0
5911 169 4 0.0000000000000000e+00 -8.6771095591762062e+01 1.1926206350753239e+01 -1.4607153553633782e+02 0 0 0
2067 60 2 0.0000000000000000e+00 -9.3606957310966806e+01 2.1229297024813008e+01 -1.4302224267675706e+02 0 0 0
5910 169 4 0.0000000000000000e+00 -7.9963407199323086e+01 1.6621836715972979e+01 -1.5217597012992053e+02 0 0 0
5912 169 3 0.0000000000000000e+00 -8.2543726238337186e+01 1.8063222458094540e+01 -1.3923779982419379e+02 0 0 0
5913 169 4 0.0000000000000000e+00 -7.2610365981290826e+01 1.7512900215968674e+01 -1.3901243772651250e+02 0 0 0
5914 169 4 0.0000000000000000e+00 -6.4065833845476547e+01 1.2525590157998559e+01 -1.3940223465758802e+02 0 0 0
1795 52 2 0.0000000000000000e+00 -6.6861308377636206e+01 2.1960732467554230e+01 -1.4844047457592166e+02 0 0 0
5915 169 4 0.0000000000000000e+00 -5.4384199405450332e+01 1.3635351123868391e+01 -1.3921597864904078e+02 0 0 0
5540 159 4 0.0000000000000000e+00 -4.0762592286785370e+01 1.4485083766497723e+01 -1.4290760257065673e+02 0 0 0
5539 159 4 0.0000000000000000e+00 -3.4518200299029530e+01 2.1172531794851295e+01 -1.4518598850882836e+02 0 0 0
1627 47 2 0.0000000000000000e+00 -2.4073260651364574e+01 1.3105496506948946e+01 -1.4352238468917173e+02 0 0 0
1626 47 2 0.0000000000000000e+00 -2.3810758648054183e+01 2.0229428292887878e+01 -1.5024365982480921e+02 0 0 0
3312 95 2 0.0000000000000000e+00 -9.9533780408189600e+01 3.2198432069962557e+01 -1.4375425119775807e+02 0 0 0
2066 60 2 0.0000000000000000e+00 -9.3042220065520141e+01 2.8154812815775220e+01 -1.5035665714136906e+02 0 0 0
3726 107 4 0.0000000000000000e+00 -8.8564010658077635e+01 3.3590143116359712e+01 -1.3997997733092603e+02 0 0 0
1794 52 2 0.0000000000000000e+00 -7.4408608672265814e+01 2.7084118473621892e+01 -1.4613427805823304e+02 0 0 0
1793 52 2 0.0000000000000000e+00 -7.7870060767882350e+01 3.4844000902776607e+01 -1.4062935214214468e+02 0 0 0
5424 155 4 0.0000000000000000e+00 -6.5483677752491644e+01 3.0372128236316900e+01 -1.5156571743751661e+02 0 0 0
5904 169 4 0.0000000000000000e+00 -5.6102525865805596e+01 3.4324477438464577e+01 -1.4551190244688260e+02 0 0 0
1797 52 2 0.0000000000000000e+00 -4.7351993627616913e+01 2.6908432195389981e+01 -1.4611510104477060e+02 0 0 0
1796 52 1 0.0000000000000000e+00 -5.7121831306570506e+01 2.4586161641795997e+01 -1.4503554075993759e+02 0 0 0
580 17 2 0.0000000000000000e+00 -4.6200584129793540e+01 3.6048731195952456e+01 -1.5227476985724357e+02 0 0 0
5538 159 4 0.0000000000000000e+00 -3.1372495793854142e+01 2.9552285538144265e+01 -1.4947832429169608e+02 0 0 0
1798 52 2 0.0000000000000000e+00 -3.8445376914186880e+01 3.0482371950025087e+01 -1.4204589538131381e+02 0 0 0
6188 177 4 0.0000000000000000e+00 -2.5380025511948102e+01 3.6497068552573339e+01 -1.4551573634007323e+02 0 0 0
4539 130 4 0.0000000000000000e+00 -4.2303375928624710e+01 -6.1456790166318903e+01 -1.3225039620133018e+02 0 0 0
4538 130 4 0.0000000000000000e+00 -3.4897951841545456e+01 -6.1360208205036869e+01 -1.2564654838408312e+02 0 0 0
5434 156 4 0.0000000000000000e+00 -2.1695488291810555e+01 -6.3247564918970760e+01 -1.3305093130013657e+02 0 0 0
5433 156 4 0.0000000000000000e+00 -2.4635465603543800e+01 -7.2452947943907660e+01 -1.3071992744351593e+02 0 0 0
2802 81 2 0.0000000000000000e+00 -1.0063821572030733e+02 -4.7941245852323220e+01 -1.2628543973402108e+02 0 0 0
2801 81 2 0.0000000000000000e+00 -9.7240066019536144e+01 -5.6798724522083241e+01 -1.2979836609036943e+02 0 0 0
6257 179 4 0.0000000000000000e+00 -8.9562328848506155e+01 -4.7189546627038261e+01 -1.2821943035827320e+02 0 0 0
4845 139 4 0.0000000000000000e+00 -5.0441397428313714e+01 -4.8358422141675454e+01 -1.2937310922018617e+02 0 0 0
4540 130 3 0.0000000000000000e+00 -3.4743719489300432e+01 -5.6530442888038863e+01 -1.3674570718273381e+02 0 0 0
2216 64 1 0.0000000000000000e+00 -3.6643511331638230e+01 -4.6968656146743236e+01 -1.3187111954125339e+02 0 0 0
2543 73 2 0.0000000000000000e+00 -1.1579949713943444e+02 -3.8885905880064300e+01 -1.2758967678305409e+02 0 0 0
6258 179 4 0.0000000000000000e+00 -9.1649577968147753e+01 -3.8941292666956578e+01 -1.3458237382792268e+02 0 0 0
4748 136 4 0.0000000000000000e+00 -6.8171808044716585e+01 -3.2825549045890455e+01 -1.2713577606086731e+02 0 0 0
4844 139 4 0.0000000000000000e+00 -5.2620877310025890e+01 -4.4438786760778335e+01 -1.3786354703070808e+02 0 0 0
4843 139 4 0.0000000000000000e+00 -5.5922926945712604e+01 -3.6124060084671697e+01 -1.3413919902670696e+02 0 0 0
4842 139 4 0.0000000000000000e+00 -4.6893415646138529e+01 -3.8102227662245454e+01 -1.3015015646915850e+02 0 0 0
2215 64 2 0.0000000000000000e+00 -3.1726435645364429e+01 -3.8729380253743905e+01 -1.3587034680021384e+02 0 0 0
1641 47 2 0.0000000000000000e+00 -2.2804383475501954e+01 -4.0572849790844202e+01 -1.3128157443202301e+02 0 0 0
2523 73 2 0.0000000000000000e+00 -1.2577562047029839e+02 -2.1012610532942677e+01 -1.3586007092842596e+02 0 0 0
2524 73 1 0.0000000000000000e+00 -1.2415915677725665e+02 -2.3239200930810135e+01 -1.2560084807637614e+02 0 0 0
2932 84 2 0.0000000000000000e+00 -1.1356699557774468e+02 -2.1873312597220885e+01 -1.2650043726303522e+02 0 0 0
6259 179 4 0.0000000000000000e+00 -9.3696822295335636e+01 -2.9416363892218566e+01 -1.3537155231448182e+02 0 0 0
6260 179 4 0.0000000000000000e+00 -9.3160646252543657e+01 -2.0252552915330064e+01 -1.3318574274951271e+02 0 0 0
2548 73 2 0.0000000000000000e+00 -7.8529582349683722e+01 -2.3978629710063757e+01 -1.2607289526306077e+02 0 0 0
4747 136 4 0.0000000000000000e+00 -6.4830192113178938e+01 -3.0364559418651339e+01 -1.3606991965214880e+02 0 0 0
2549 73 2 0.0000000000000000e+00 -7.1675702426317926e+01 -2.3975377535828382e+01 -1.3334769703672288e+02 0 0 0
1631 47 2 0.0000000000000000e+00 -3.7597463147071508e+01 -2.0494773640221791e+01 -1.3881180632338143e+02 0 0 0
2214 64 2 0.0000000000000000e+00 -2.9945354015708553e+01 -3.1495038508535671e+01 -1.2890509269692868e+02 0 0 0
6494 186 4 0.0000000000000000e+00 -1.2086047502249885e+02 -1.2868597480612312e+01 -1.2922788389222561e+02 0 0 0
6495 186 4 0.0000000000000000e+00 -1.1341962077978052e+02 -1.3648739026809437e+01 -1.3650177104787184e+02 0 0 0
2931 84 2 0.0000000000000000e+00 -1.0473373394589906e+02 -1.7872153902287863e+01 -1.2972583275742201e+02 0 0 0
2930 84 1 0.0000000000000000e+00 -9.9087691877843326e+01 -1.1558831370993763e+01 -1.3584527096766092e+02 0 0 0
6261 179 4 0.0000000000000000e+00 -9.0987590804492839e+01 -1.0891952629789108e+01 -1.2944768135617494e+02 0 0 0
2926 84 2 0.0000000000000000e+00 -8.2540187811795121e+01 -1.7512706956176920e+01 -1.3340337209119761e+02 0 0 0
2925 84 2 0.0000000000000000e+00 -8.1620215796174037e+01 -8.8570088706030798e+00 -1.2795743729472427e+02 0 0 0
6516 187 4 0.0000000000000000e+00 -6.1649852051804288e+01 -1.1868685326984643e+01 -1.2581594748956088e+02 0 0 0
5543 159 4 0.0000000000000000e+00 -4.3125248516694100e+01 -8.0781049313522146e+00 -1.2776871338421064e+02 0 0 0
1630 47 2 0.0000000000000000e+00 -3.6945564158638817e+01 -1.0533284578824061e+01 -1.3701611732939855e+02 0 0 0
1376 40 1 0.0000000000000000e+00 -2.1126885971843269e+01 -1.4373490375568448e+01 -1.2544279601173112e+02 0 0 0
6491 186 4 0.0000000000000000e+00 -1.4249048363855269e+02 3.2119983678303293e-01 -1.2561107980118851e+02 0 0 0
6263 179 4 0.0000000000000000e+00 -1.0549693545736261e+02 -1.8254025006715564e+00 -1.3195041543331280e+02 0 0 0
6262 179 3 0.0000000000000000e+00 -9.5617088653510876e+01 -2.2920435211809846e+00 -1.3057431459290112e+02 0 0 0
2923 84 1 0.0000000000000000e+00 -9.0245547807202499e+01 8.3745393090052822e+00 -1.2581016695097931e+02 0 0 0
2069 60 1 0.0000000000000000e+00 -8.5362221556809857e+01 8.6588820902204091e+00 -1.3554514293797169e+02 0 0 0
2070 60 2 0.0000000000000000e+00 -7.5585626514224245e+01 7.6561695138599646e+00 -1.3556776009036770e+02 0 0 0
2924 84 2 0.0000000000000000e+00 -8.4964430967653186e+01 2.1214454895735685e-01 -1.2791351915637898e+02 0 0 0
2071 60 2 0.0000000000000000e+00 -7.1116786287827750e+01 1.0768529202339825e+00 -1.2947854065213707e+02 0 0 0
6517 187 4 0.0000000000000000e+00 -6.2818755591284614e+01 -3.9528646342465774e+00 -1.3186642871661326e+02 0 0 0
6518 187 4 0.0000000000000000e+00 -5.8344059483663450e+01 2.2904305407101067e+00 -1.3803291169953226e+02 0 0 0
6519 187 4 0.0000000000000000e+00 -4.8788173124726548e+01 5.2645034841341065e+00 -1.3741974170487245e+02 0 0 0
5542 159 4 0.0000000000000000e+00 -3.9532503308223433e+01 -1.1842334045596468e+00 -1.3375362020636072e+02 0 0 0
1629 47 2 0.0000000000000000e+00 -2.9577197586550646e+01 -3.2785169780578385e+00 -1.3436554210900223e+02 0 0 0
1628 47 1 0.0000000000000000e+00 -2.6920703117430772e+01 6.3649131271917492e+00 -1.3669547602973694e+02 0 0 0
6332 181 3 0.0000000000000000e+00 -2.1960473988403528e+01 -3.3449212728140467e+00 -1.2558057116534923e+02 0 0 0
6490 186 4 0.0000000000000000e+00 -1.4112422658505145e+02 9.9231496176543885e+00 -1.2673618800220707e+02 0 0 0
6489 186 4 0.0000000000000000e+00 -1.4034036602620756e+02 2.0066659215843604e+01 -1.2624328077385462e+02 0 0 0
1720 50 2 0.0000000000000000e+00 -1.2865341668565100e+02 1.8642596219326368e+01 -1.3245377838085199e+02 0 0 0
1721 50 2 0.0000000000000000e+00 -1.2031133863724004e+02 1.7462360099983549e+01 -1.2819930358179596e+02 0 0 0
1722 50 2 0.0000000000000000e+00 -1.1105293625287298e+02 2.0132029368271098e+01 -1.2671303611665535e+02 0 0 0
2068 60 2 0.0000000000000000e+00 -9.4172698975708457e+01 1.3346629424321963e+01 -1.3700222034152102e+02 0 0 0
2922 84 2 0.0000000000000000e+00 -9.8572755567310594e+01 1.4389366289081012e+01 -1.2749662754361242e+02 0 0 0
3728 107 3 0.0000000000000000e+00 -8.5779790326818087e+01 1.7842702423651911e+01 -1.2860337101354784e+02 0 0 0
2906 84 2 0.0000000000000000e+00 -5.9791344126208344e+01 9.2528191079444149e+00 -1.3088661695423656e+02 0 0 0
5901 169 4 0.0000000000000000e+00 -4.6507165329238305e+01 2.1063482783115656e+01 -1.2722917481338369e+02 0 0 0
6520 187 4 0.0000000000000000e+00 -4.3032656816240461e+01 1.1505736871773312e+01 -1.3347113687158105e+02 0 0 0
6521 187 3 0.0000000000000000e+00 -3.7382914076545134e+01 1.7542845588414423e+01 -1.2869586381647963e+02 0 0 0
6182 177 4 0.0000000000000000e+00 -2.4343148040142776e+01 1.5572133076542441e+01 -1.3238880339018812e+02 0 0 0
6488 186 4 0.0000000000000000e+00 -1.4199318992546759e+02 2.9521397877474968e+01 -1.2768373857937959e+02 0 0 0
1719 50 1 0.0000000000000000e+00 -1.3045116749781067e+02 2.6597554316842416e+01 -1.2739610395114534e+02 0 0 0
6291 180 4 0.0000000000000000e+00 -1.1390788407902511e+02 3.6163944947836626e+01 -1.2651275550140554e+02 0 0 0
3313 95 2 0.0000000000000000e+00 -1.0083223981146372e+02 3.6555763485869797e+01 -1.3488271633449170e+02 0 0 0
3727 107 4 0.0000000000000000e+00 -8.5725798619384179e+01 2.7546076855370753e+01 -1.3256768343034182e+02 0 0 0
6341 182 4 0.0000000000000000e+00 -7.9381274510323706e+01 2.6626943438641607e+01 -1.2553621130822452e+02 0 0 0
6340 182 4 0.0000000000000000e+00 -7.2283462541506978e+01 2.8357907643058866e+01 -1.3210635890963326e+02 0 0 0
6339 182 3 0.0000000000000000e+00 -6.3058005450635598e+01 2.7516448198553011e+01 -1.3561298076999802e+02 0 0 0
6338 182 4 0.0000000000000000e+00 -5.8304132888565206e+01 2.5929319679765488e+01 -1.2740113266401639e+02 0 0 0
5902 169 4 0.0000000000000000e+00 -4.9521583578244218e+01 2.7765423488249773e+01 -1.3466802687464198e+02 0 0 0
6180 177 4 0.0000000000000000e+00 -3.6062924857422338e+01 2.9955342865249978e+01 -1.3097797286525631e+02 0 0 0
6181 177 4 0.0000000000000000e+00 -2.9484443125484489e+01 2.3088120733946987e+01 -1.3444503324380784e+02 0 0 0
6186 177 4 0.0000000000000000e+00 -2.6121739536388244e+01 3.0325030353793782e+01 -1.2727643605638278e+02 0 0 0
6187 177 4 0.0000000000000000e+00 -2.5043680390725601e+01 3.3371075019903827e+01 -1.3620780441057815e+02 0 0 0
5431 156 4 0.0000000000000000e+00 -2.4903431074352149e+01 -7.8577078626527452e+01 -1.1374835529420803e+02 0 0 0
5432 156 4 0.0000000000000000e+00 -2.2920835693840015e+01 -7.9009860191265574e+01 -1.2368317841145975e+02 0 0 0
6233 179 4 0.0000000000000000e+00 -9.6396417994238035e+01 -6.0189965871802393e+01 -1.1399330210053775e+02 0 0 0
4537 130 4 0.0000000000000000e+00 -2.8180001838819955e+01 -6.5712037435799630e+01 -1.2012604946022937e+02 0 0 0
4536 130 4 0.0000000000000000e+00 -1.9293235536330041e+01 -6.1339136929128763e+01 -1.2040020238563930e+02 0 0 0
6252 179 4 0.0000000000000000e+00 -1.1540074744607284e+02 -4.7885025449709225e+01 -1.1373215836237893e+02 0 0 0
2803 81 2 0.0000000000000000e+00 -1.0448561471746309e+02 -5.2242635207099219e+01 -1.1759764358813551e+02 0 0 0
6232 179 4 0.0000000000000000e+00 -8.9054044616427106e+01 -5.4564461502871175e+01 -1.1791284086153794e+02 0 0 0
6231 179 4 0.0000000000000000e+00 -8.0671199949975971e+01 -5.1216713593694934e+01 -1.2251836384333765e+02 0 0 0
2631 76 2 0.0000000000000000e+00 -6.9539556629618630e+01 -4.6734233180018329e+01 -1.2335406838805706e+02 0 0 0
2632 76 2 0.0000000000000000e+00 -6.2148749470185919e+01 -5.2697460863844810e+01 -1.2334988782883272e+02 0 0 0
2633 76 2 0.0000000000000000e+00 -5.3302942709638430e+01 -5.6079686247941190e+01 -1.1970765630697623e+02 0 0 0
4846 139 4 0.0000000000000000e+00 -4.7629203807360327e+01 -4.7764484831233219e+01 -1.2008247513220114e+02 0 0 0
2217 64 2 0.0000000000000000e+00 -3.4553623628526850e+01 -5.2423066759031705e+01 -1.2372931306616258e+02 0 0 0
2634 76 2 0.0000000000000000e+00 -4.4405367711454183e+01 -5.7341212293962307e+01 -1.1616112981354517e+02 0 0 0
4847 139 4 0.0000000000000000e+00 -3.9318655207978345e+01 -4.6393034236717241e+01 -1.1595809516950561e+02 0 0 0
2218 64 2 0.0000000000000000e+00 -2.8497385520567263e+01 -5.4983272236790199e+01 -1.1649634297498876e+02 0 0 0
1643 47 2 0.0000000000000000e+00 -1.7939929155616589e+01 -4.9040330826327470e+01 -1.1608679634163418e+02 0 0 0
2542 73 2 0.0000000000000000e+00 -1.2384706013710685e+02 -4.1719771179556133e+01 -1.2258161771914291e+02 0 0 0
6253 179 4 0.0000000000000000e+00 -1.1655010625291604e+02 -3.7712273937524749e+01 -1.1396346220189976e+02 0 0 0
2541 73 2 0.0000000000000000e+00 -1.2695314924985431e+02 -4.4896885061830915e+01 -1.1359677898734985e+02 0 0 0
2544 73 2 0.0000000000000000e+00 -1.0724215590201626e+02 -3.9621874924358146e+01 -1.2328370823862645e+02 0 0 0
6255 179 3 0.0000000000000000e+00 -1.0116949827007009e+02 -3.9500637866373310e+01 -1.1385114431227657e+02 0 0 0
6254 179 4 0.0000000000000000e+00 -1.0807779484360222e+02 -3.2581421631828192e+01 -1.1542820155108666e+02 0 0 0
6256 179 4 0.0000000000000000e+00 -9.3886346131151299e+01 -4.4150286385318090e+01 -1.1934296728513745e+02 0 0 0
2545 73 1 0.0000000000000000e+00 -9.8172399165594513e+01 -3.4222468174451414e+01 -1.2280011668305428e+02 0 0 0
2629 76 1 0.0000000000000000e+00 -8.4785789700145443e+01 -4.4765909637733614e+01 -1.1217170582566899e+02 0 0 0
2630 76 2 0.0000000000000000e+00 -7.6257266522631895e+01 -4.3573413659195808e+01 -1.1682113976689149e+02 0 0 0
4750 136 3 0.0000000000000000e+00 -8.3557310718321034e+01 -3.4720598530870106e+01 -1.1706027024903521e+02 0 0 0
4749 136 4 0.0000000000000000e+00 -7.3824217120494779e+01 -3.2254455844106360e+01 -1.1899417494985371e+02 0 0 0
6513 187 4 0.0000000000000000e+00 -6.3681629821293363e+01 -3.7087139046619839e+01 -1.1456770623876842e+02 0 0 0
2083 60 1 0.0000000000000000e+00 -5.2336961622858595e+01 -3.4981379756842841e+01 -1.1239712178636886e+02 0 0 0
4841 139 3 0.0000000000000000e+00 -3.9687944089921842e+01 -4.0210402865364614e+01 -1.2328527712639793e+02 0 0 0
4840 139 4 0.0000000000000000e+00 -3.7153131397572352e+01 -3.5194617092757269e+01 -1.1554643101281538e+02 0 0 0
1642 47 1 0.0000000000000000e+00 -2.1824312741808676e+01 -4.1820238868871790e+01 -1.2166648557816049e+02 0 0 0
4848 139 3 0.0000000000000000e+00 -2.9787967638841664e+01 -4.5465960832176151e+01 -1.1180068466381094e+02 0 0 0
2525 73 2 0.0000000000000000e+00 -1.1881931257271359e+02 -2.6728863597769923e+01 -1.1784026679241343e+02 0 0 0
2933 84 2 0.0000000000000000e+00 -1.1292569202996485e+02 -1.8562083268935581e+01 -1.1763571440817478e+02 0 0 0
2546 73 2 0.0000000000000000e+00 -9.3878518229419257e+01 -2.5289221256345588e+01 -1.1996898497348644e+02 0 0 0
2547 73 2 0.0000000000000000e+00 -8.4483568349797579e+01 -2.3479825915752976e+01 -1.1773808736565253e+02 0 0 0
6515 187 4 0.0000000000000000e+00 -6.1868912667559705e+01 -2.0665874056907001e+01 -1.2175861357617870e+02 0 0 0
6514 187 3 0.0000000000000000e+00 -5.8871654760218789e+01 -3.0079444219577237e+01 -1.2053713526303876e+02 0 0 0
1374 40 2 0.0000000000000000e+00 -3.5238775320312307e+01 -1.8485627380055394e+01 -1.1516386471995600e+02 0 0 0
4865 139 4 0.0000000000000000e+00 -2.2807169094543827e+01 -3.0461536319947616e+01 -1.1232129255679033e+02 0 0 0
2213 64 2 0.0000000000000000e+00 -2.6117388685298270e+01 -2.5201416611385607e+01 -1.2203548712723023e+02 0 0 0
6493 186 3 0.0000000000000000e+00 -1.2922283040149756e+02 -1.3000039698974909e+01 -1.2437803450906438e+02 0 0 0
6492 186 4 0.0000000000000000e+00 -1.3593330804701444e+02 -6.6624700880438805e+00 -1.2161486292911685e+02 0 0 0
2934 84 2 0.0000000000000000e+00 -1.1302281948909221e+02 -1.0153815369524031e+01 -1.1121489224158989e+02 0 0 0
4755 136 4 0.0000000000000000e+00 -9.4278779740203220e+01 -1.3032313328565621e+01 -1.1883042407889560e+02 0 0 0
1386 40 2 0.0000000000000000e+00 -7.2432590623443772e+01 -1.7837825067423587e+01 -1.1459453531540173e+02 0 0 0
5545 159 4 0.0000000000000000e+00 -5.8785998070953539e+01 -8.8527398694738189e+00 -1.1521866292279616e+02 0 0 0
5544 159 4 0.0000000000000000e+00 -5.1275540959619129e+01 -8.5830593979594472e+00 -1.2164416180587115e+02 0 0 0
1375 40 2 0.0000000000000000e+00 -3.1281004877167373e+01 -1.6688919887227204e+01 -1.2356913293999433e+02 0 0 0
2212 64 2 0.0000000000000000e+00 -2.4992207429439297e+01 -1.7564684279284151e+01 -1.1612945669875793e+02 0 0 0
6333 181 4 0.0000000000000000e+00 -2.8822607530457709e+01 -7.9751530480302746e+00 -1.1960129303766747e+02 0 0 0
928 27 1 0.0000000000000000e+00 -1.0119228904380284e+02 8.1060804207094623e+00 -1.1250516826728185e+02 0 0 0
4756 136 4 0.0000000000000000e+00 -9.7667580868250297e+01 -4.0280453580428244e+00 -1.1735006048272068e+02 0 0 0
3731 107 4 0.0000000000000000e+00 -8.7732246358608222e+01 -2.6983925039864332e+00 -1.1324869376336200e+02 0 0 0
3730 107 4 0.0000000000000000e+00 -8.5873113980107675e+01 6.8635379612380083e+00 -1.1567678913847010e+02 0 0 0
2072 60 2 0.0000000000000000e+00 -7.1543278765219824e+01 -1.2980857954725050e-01 -1.1988503293408741e+02 0 0 0
2079 60 2 0.0000000000000000e+00 -5.3546627219875631e+01 1.2584946595879345e+00 -1.1240933407251232e+02 0 0 0
2908 84 2 0.0000000000000000e+00 -4.5368374902647808e+01 8.6101558241817315e+00 -1.2444135166210363e+02 0 0 0
2909 84 1 0.0000000000000000e+00 -3.5413529227108633e+01 8.7724327017197137e+00 -1.2205914047661177e+02 0 0 0
2911 84 2 0.0000000000000000e+00 -4.1479833943188105e+01 -1.7815761220391813e+00 -1.1766958494685576e+02 0 0 0
2910 84 2 0.0000000000000000e+00 -3.5005761975159054e+01 -9.4847020933303150e-01 -1.2477797714735682e+02 0 0 0
2921 84 2 0.0000000000000000e+00 -9.7386130349448180e+01 1.5578077164728112e+01 -1.1756511993185099e+02 0 0 0
2920 84 2 0.0000000000000000e+00 -8.9680961181277041e+01 1.7574866379830880e+01 -1.1137771787162369e+02 0 0 0
3729 107 4 0.0000000000000000e+00 -8.0937503856816150e+01 1.3858890423137270e+01 -1.2003027258157613e+02 0 0 0
2078 60 2 0.0000000000000000e+00 -6.0203161320201737e+01 9.1407195475752658e+00 -1.1138966616265142e+02 0 0 0
2907 84 2 0.0000000000000000e+00 -5.4547928412457296e+01 1.2505715899828067e+01 -1.2302766125544346e+02 0 0 0
5900 169 4 0.0000000000000000e+00 -4.8890748911301642e+01 2.2046587626446275e+01 -1.1710755427422973e+02 0 0 0
6523 187 4 0.0000000000000000e+00 -4.5841234592663326e+01 1.2711793207508581e+01 -1.1305188726980319e+02 0 0 0
6522 187 4 0.0000000000000000e+00 -4.0091009333393210e+01 1.7415400495865512e+01 -1.1944939849467528e+02 0 0 0
6184 177 4 0.0000000000000000e+00 -3.0017680503754445e+01 2.1279402908762304e+01 -1.1305455008858623e+02 0 0 0
1533 44 2 0.0000000000000000e+00 -1.7661590795086937e+01 1.7067294282649357e+01 -1.1741862622736458e+02 0 0 0
6183 177 4 0.0000000000000000e+00 -2.7851968011957311e+01 1.7951690943102754e+01 -1.2261117436645024e+02 0 0 0