LAMMPS data file via write_data, version 5 Jun 2019, timestep = 400000000

7000 atoms
4 atom types
7292 bonds
3 bond types
6600 angles
2 angle types

-5.0000000000000000e+02 5.0000000000000000e+02 xlo xhi
-5.0000000000000000e+02 5.0000000000000000e+02 ylo yhi
-5.0000000000000000e+02 5.0000000000000000e+02 zlo zhi

Masses

1 1000
2 1000
3 1000
4 1000

Pair Coeffs # lj/cut

1 0.296 10
2 0.296 10
3 0.296 10
4 0.296 10

Angle Coeffs # cosine

1 2
2 2

Atoms # full

2555 73 2 0.0000000000000000e+00 -7.6814687273516014e+01 -5.4558482407541632e+01 -1.5552717477223246e+02 0 0 0
4430 127 4 0.0000000000000000e+00 -3.1414919460896581e+01 -2.7971203729429416e+01 -1.6380875792202895e+02 0 0 0
3463 99 2 0.0000000000000000e+00 -9.9417255971308293e+01 -1.3574835394494430e+01 -1.5567294457204733e+02 0 0 0
2132 61 1 0.0000000000000000e+00 -2.7372086692227938e+01 -7.7825376073926904e+00 -1.6250129738451662e+02 0 0 0
2133 61 2 0.0000000000000000e+00 -2.7864776030154943e+01 -1.5603134973675447e+01 -1.5612711420353486e+02 0 0 0
2554 73 2 0.0000000000000000e+00 -7.7773338791453426e+01 -6.4404186863121055e+01 -1.5536961495889298e+02 0 0 0
2553 73 2 0.0000000000000000e+00 -7.4898901146974950e+01 -7.1236812359861148e+01 -1.4870449023307401e+02 0 0 0
4744 136 4 0.0000000000000000e+00 -3.9400301925664145e+01 -6.2510622889677059e+01 -1.4418297003876555e+02 0 0 0
3465 99 2 0.0000000000000000e+00 -9.5122316697652366e+01 -3.2745864025075839e+01 -1.5120118015611160e+02 0 0 0
1626 47 2 0.0000000000000000e+00 -5.8209175481675324e+01 -3.2912977112107967e+01 -1.4319991497613790e+02 0 0 0
5425 155 4 0.0000000000000000e+00 -4.3547756568899239e+01 -3.5303389240534266e+01 -1.5224881255347617e+02 0 0 0
1625 47 2 0.0000000000000000e+00 -4.7922663611388458e+01 -3.5225766516833104e+01 -1.4244103964307516e+02 0 0 0
4271 123 4 0.0000000000000000e+00 -1.0599504456280594e+02 -2.2837147325346109e+01 -1.5023866855047206e+02 0 0 0
3464 99 2 0.0000000000000000e+00 -9.5846582072594799e+01 -2.3122842525960856e+01 -1.5245108739731069e+02 0 0 0
5424 155 4 0.0000000000000000e+00 -5.0752404779591437e+01 -2.8076380239247207e+01 -1.5182449190473827e+02 0 0 0
5423 155 4 0.0000000000000000e+00 -5.1898805136976200e+01 -2.3941524193978097e+01 -1.4331539247187285e+02 0 0 0
1786 52 2 0.0000000000000000e+00 -4.1260139102087052e+01 -2.0013804800964309e+01 -1.4964846184277772e+02 0 0 0
4431 127 4 0.0000000000000000e+00 -3.0986405430891139e+01 -2.7679916200066067e+01 -1.5368284583839252e+02 0 0 0
4432 127 4 0.0000000000000000e+00 -2.9484576232365114e+01 -2.0741047057400646e+01 -1.4589314903286430e+02 0 0 0
4272 123 4 0.0000000000000000e+00 -1.0649986329198937e+02 -1.3535752774997082e+01 -1.4636108343046834e+02 0 0 0
3462 99 1 0.0000000000000000e+00 -1.0560574660098989e+02 -5.6367830900580547e+00 -1.5381163518074064e+02 0 0 0
4273 123 4 0.0000000000000000e+00 -1.0531761223335499e+02 -4.5990814239780136e+00 -1.4253274564059572e+02 0 0 0
584 17 2 0.0000000000000000e+00 -4.7425219611096907e+01 -1.2374516012699400e+01 -1.4582691612555556e+02 0 0 0
3461 99 2 0.0000000000000000e+00 -1.0953175504636754e+02 2.1883320428308903e+00 -1.4893558619333922e+02 0 0 0
4274 123 3 0.0000000000000000e+00 -9.7703507981356196e+01 -2.6628952217773897e-02 -1.4783158890847420e+02 0 0 0
4275 123 4 0.0000000000000000e+00 -9.0321323425097432e+01 6.5910351797098059e+00 -1.4700878680656743e+02 0 0 0
4276 123 4 0.0000000000000000e+00 -8.0542939581064687e+01 8.2524070484171066e+00 -1.4342820739898798e+02 0 0 0
4277 123 4 0.0000000000000000e+00 -7.1810590309078748e+01 9.5828411608363400e+00 -1.4888441060741155e+02 0 0 0
595 17 2 0.0000000000000000e+00 -5.7356924837015889e+01 -2.4542672284865366e+00 -1.5411384087104992e+02 0 0 0
594 17 2 0.0000000000000000e+00 -5.8143728203367509e+01 5.2150790885013762e+00 -1.4762029447957988e+02 0 0 0
6193 177 4 0.0000000000000000e+00 -4.9044164006758201e+01 4.9046219397981465e+00 -1.5500629089942856e+02 0 0 0
585 17 1 0.0000000000000000e+00 -4.6951229881226894e+01 -2.3255339457367934e+00 -1.4592676641121869e+02 0 0 0
586 17 2 0.0000000000000000e+00 -4.4807273866934416e+01 7.0718416880951853e+00 -1.4397539149677655e+02 0 0 0
6192 177 3 0.0000000000000000e+00 -3.9902897334404088e+01 1.3659676846504141e+00 -1.5450913220492907e+02 0 0 0
6191 177 4 0.0000000000000000e+00 -3.0597963725165034e+01 -6.5672839279241058e-01 -1.5125835198876140e+02 0 0 0
2550 73 2 0.0000000000000000e+00 -6.7965255659132268e+01 -8.9702165818272803e+01 -1.2993233809612261e+02 0 0 0
2552 73 1 0.0000000000000000e+00 -7.1799826370131498e+01 -7.5335760441922716e+01 -1.3994191438151071e+02 0 0 0
2066 60 2 0.0000000000000000e+00 -7.4854382204799450e+01 -8.1183191342009124e+01 -1.3155140708979582e+02 0 0 0
2551 73 2 0.0000000000000000e+00 -6.6304396152267529e+01 -8.3062871790901383e+01 -1.3685676555830742e+02 0 0 0
6502 186 4 0.0000000000000000e+00 -4.9337792284607318e+01 -7.6613596248892648e+01 -1.3714547031388034e+02 0 0 0
6503 186 4 0.0000000000000000e+00 -4.0856216448406542e+01 -7.4551342351374259e+01 -1.3234011290013399e+02 0 0 0
4732 136 4 0.0000000000000000e+00 -2.9913011572285512e+01 -8.0028035484898822e+01 -1.3331518112753039e+02 0 0 0
6497 186 4 0.0000000000000000e+00 -8.8126705099112399e+01 -5.8458966040325322e+01 -1.3502191494370115e+02 0 0 0
6499 186 4 0.0000000000000000e+00 -6.9657782707941521e+01 -6.0962457998674090e+01 -1.3214371457102831e+02 0 0 0
6498 186 4 0.0000000000000000e+00 -7.8824516838395368e+01 -5.8456859631651540e+01 -1.3129263942179438e+02 0 0 0
6501 186 4 0.0000000000000000e+00 -5.8126763778318228e+01 -7.1219452998916339e+01 -1.3883276616912948e+02 0 0 0
6500 186 3 0.0000000000000000e+00 -6.6312210070000646e+01 -6.5868999094115864e+01 -1.4003074154982869e+02 0 0 0
4745 136 4 0.0000000000000000e+00 -4.2691098669046738e+01 -6.5805151720736774e+01 -1.3506145499920711e+02 0 0 0
6504 186 4 0.0000000000000000e+00 -3.2810924334221248e+01 -6.9293600408522849e+01 -1.2939813403869996e+02 0 0 0
4743 136 3 0.0000000000000000e+00 -3.1218411006277147e+01 -6.0074655045915058e+01 -1.3946032230227041e+02 0 0 0
6495 186 4 0.0000000000000000e+00 -1.0759547233966967e+02 -5.6337468824885462e+01 -1.3190537274277821e+02 0 0 0
6496 186 4 0.0000000000000000e+00 -9.7849132892232944e+01 -5.5266700769397090e+01 -1.3362494204367886e+02 0 0 0
2237 64 1 0.0000000000000000e+00 -3.5299716793497794e+01 -5.5905467535418673e+01 -1.2971692606032019e+02 0 0 0
2238 64 2 0.0000000000000000e+00 -2.9521966106420411e+01 -5.0758510266711134e+01 -1.3586842996259412e+02 0 0 0
1623 47 2 0.0000000000000000e+00 -3.6239914327904380e+01 -4.5533356698273124e+01 -1.2964893948897131e+02 0 0 0
1627 47 2 0.0000000000000000e+00 -6.3210857373895507e+01 -3.7043413475985552e+01 -1.3564768582555320e+02 0 0 0
1624 47 2 0.0000000000000000e+00 -4.2131179555095954e+01 -4.0092038517988826e+01 -1.3594586764355066e+02 0 0 0
3021 87 1 0.0000000000000000e+00 -3.3527045075692001e+01 -3.3923862669748829e+01 -1.3014894937235135e+02 0 0 0
3020 87 2 0.0000000000000000e+00 -3.1353263325423477e+01 -3.0736050536225662e+01 -1.3926188622956948e+02 0 0 0
5539 159 4 0.0000000000000000e+00 -7.0163765190621447e+01 -2.6158959703074462e+01 -1.2959912201731538e+02 0 0 0
5538 159 4 0.0000000000000000e+00 -6.3485414433552563e+01 -1.9121334937087578e+01 -1.2814168623724913e+02 0 0 0
1789 52 1 0.0000000000000000e+00 -5.8202682695440856e+01 -2.9469326295791920e+01 -1.3114120042283872e+02 0 0 0
5422 155 3 0.0000000000000000e+00 -5.5526751858362978e+01 -1.9805941865052130e+01 -1.3469363735128937e+02 0 0 0
1788 52 2 0.0000000000000000e+00 -4.8262873013785004e+01 -2.8867592957446089e+01 -1.3391706692790061e+02 0 0 0
1787 52 2 0.0000000000000000e+00 -4.2327677518421709e+01 -2.3804488686892146e+01 -1.4054912754209789e+02 0 0 0
6353 182 3 0.0000000000000000e+00 -9.7102393643485073e+01 -6.6045633416275535e+00 -1.2930385669439616e+02 0 0 0
6352 182 4 0.0000000000000000e+00 -8.7111080298159479e+01 -4.7132206978827700e+00 -1.2960265406659423e+02 0 0 0
5537 159 4 0.0000000000000000e+00 -6.7831430098008752e+01 -1.0634460355311958e+01 -1.3093347908008965e+02 0 0 0
582 17 2 0.0000000000000000e+00 -6.0454634283954427e+01 -4.7318232876347874e+00 -1.3373205267312730e+02 0 0 0
583 17 2 0.0000000000000000e+00 -5.3885648426568359e+01 -1.0600748854123797e+01 -1.3840733044254503e+02 0 0 0
4550 130 4 0.0000000000000000e+00 -3.7287048282914441e+01 -1.5765678614743255e+01 -1.3468407498731929e+02 0 0 0
6188 177 4 0.0000000000000000e+00 -2.6698741716948057e+01 -8.5757576581296249e+00 -1.2953495233652654e+02 0 0 0
1810 52 1 0.0000000000000000e+00 -9.6075133730533707e+01 3.6479255453700938e+00 -1.3392379790348812e+02 0 0 0
1809 52 2 0.0000000000000000e+00 -8.7158033027924375e+01 1.5121803042586297e+00 -1.3817851657818193e+02 0 0 0
1808 52 2 0.0000000000000000e+00 -7.7856478014703200e+01 5.8625758244085224e-01 -1.3757969115516934e+02 0 0 0
1807 52 2 0.0000000000000000e+00 -6.8074008274878608e+01 2.4173073214194369e+00 -1.4085368388970690e+02 0 0 0
1806 52 2 0.0000000000000000e+00 -5.8877153278513930e+01 4.6931785914353332e+00 -1.3769749205948253e+02 0 0 0
581 17 2 0.0000000000000000e+00 -6.6661419787122412e+01 2.2228347293308710e+00 -1.3033013155841743e+02 0 0 0
1805 52 2 0.0000000000000000e+00 -5.1003806020073092e+01 5.2053851741954045e+00 -1.3129916085171499e+02 0 0 0
588 17 2 0.0000000000000000e+00 -3.3162553544730109e+01 1.0584540642251408e+01 -1.4001283178261622e+02 0 0 0
2549 73 2 0.0000000000000000e+00 -7.3841637635634086e+01 -9.0537319333666602e+01 -1.2179893627370532e+02 0 0 0
2233 64 2 0.0000000000000000e+00 -4.2108344742651504e+01 -8.7099617843010321e+01 -1.2175093954267898e+02 0 0 0
2232 64 2 0.0000000000000000e+00 -3.3174352805883778e+01 -9.0026095072863143e+01 -1.2503120035434837e+02 0 0 0
2067 60 2 0.0000000000000000e+00 -7.5006903940441418e+01 -7.2671398597093827e+01 -1.2735552908275653e+02 0 0 0
2629 76 1 0.0000000000000000e+00 -7.2470451545071867e+01 -7.6769518459142404e+01 -1.1479572041569112e+02 0 0 0
2630 76 2 0.0000000000000000e+00 -6.5294045607723959e+01 -8.3588623276489528e+01 -1.1678780413893421e+02 0 0 0
2234 64 2 0.0000000000000000e+00 -3.9778198061830189e+01 -8.0122140790620591e+01 -1.1475167338839849e+02 0 0 0
4731 136 4 0.0000000000000000e+00 -3.4004309663756544e+01 -7.8624834547954237e+01 -1.2326536434450185e+02 0 0 0
4730 136 4 0.0000000000000000e+00 -2.9393389923838829e+01 -8.0906461801797747e+01 -1.1425167035691844e+02 0 0 0
6494 186 4 0.0000000000000000e+00 -1.1553631111164673e+02 -5.9193666871553980e+01 -1.2673995262992946e+02 0 0 0
6264 179 4 0.0000000000000000e+00 -1.0346688358177073e+02 -6.0569826543250365e+01 -1.2412885107402096e+02 0 0 0
6265 179 4 0.0000000000000000e+00 -1.0199152122634959e+02 -6.3057810788764691e+01 -1.1449023621715899e+02 0 0 0
2626 76 2 0.0000000000000000e+00 -8.8484356634382976e+01 -7.1201326216111255e+01 -1.2648782921417533e+02 0 0 0
2627 76 2 0.0000000000000000e+00 -8.9065016966697115e+01 -7.1236797755985663e+01 -1.1618186658411922e+02 0 0 0
2068 60 2 0.0000000000000000e+00 -7.8355986569233124e+01 -6.7187969440428432e+01 -1.1947632088348601e+02 0 0 0
4748 136 4 0.0000000000000000e+00 -6.5623993733645662e+01 -6.6142290767501265e+01 -1.2075386512829579e+02 0 0 0
4747 136 4 0.0000000000000000e+00 -5.7241130823919349e+01 -7.0096954472127123e+01 -1.2292675609502950e+02 0 0 0
4746 136 4 0.0000000000000000e+00 -4.7556560198928629e+01 -6.7528008617004261e+01 -1.2579263500322905e+02 0 0 0
2235 64 2 0.0000000000000000e+00 -4.0017968514067732e+01 -7.0195372829193474e+01 -1.1729660109575303e+02 0 0 0
2236 64 2 0.0000000000000000e+00 -3.8968092814396499e+01 -6.1935053343897394e+01 -1.2277040843220216e+02 0 0 0
6493 186 3 0.0000000000000000e+00 -1.2203650058653844e+02 -5.8037621639739548e+01 -1.1845314144653395e+02 0 0 0
6263 179 4 0.0000000000000000e+00 -1.0474560717378471e+02 -5.0403751702949727e+01 -1.2296697806876777e+02 0 0 0
2906 84 2 0.0000000000000000e+00 -8.9096148931083235e+01 -4.9108927289091930e+01 -1.1796649053566435e+02 0 0 0
5914 169 4 0.0000000000000000e+00 -6.8872178733099602e+01 -5.6897548797428804e+01 -1.2163265660236080e+02 0 0 0
5913 169 4 0.0000000000000000e+00 -7.7777215525847666e+01 -5.6098978825221785e+01 -1.1745025936413319e+02 0 0 0
5542 159 4 0.0000000000000000e+00 -6.9680608736034188e+01 -4.9710690227258944e+01 -1.1491924344789471e+02 0 0 0
1629 47 2 0.0000000000000000e+00 -5.5930595828729700e+01 -4.8365321331331515e+01 -1.2112884396225320e+02 0 0 0
5915 169 4 0.0000000000000000e+00 -6.0924210996635836e+01 -5.6955348085895373e+01 -1.1545521461208102e+02 0 0 0
1630 47 2 0.0000000000000000e+00 -5.0901686932656688e+01 -5.6379418185533972e+01 -1.2005024629399290e+02 0 0 0
3024 87 2 0.0000000000000000e+00 -3.4815243215915174e+01 -4.7311480753974138e+01 -1.1568708011502770e+02 0 0 0
1622 47 2 0.0000000000000000e+00 -2.6799580100912095e+01 -4.5658159299324886e+01 -1.2611837523108801e+02 0 0 0
2928 84 2 0.0000000000000000e+00 -1.2727975832739641e+02 -3.9568716801115436e+01 -1.1855699473026884e+02 0 0 0
2929 84 2 0.0000000000000000e+00 -1.1741654258028815e+02 -3.8085735474409681e+01 -1.1944549806085369e+02 0 0 0
6262 179 3 0.0000000000000000e+00 -1.0229806254622964e+02 -4.0553261938803644e+01 -1.2150942164554124e+02 0 0 0
2907 84 2 0.0000000000000000e+00 -8.0857100435661380e+01 -4.3273872756534168e+01 -1.1582456919209599e+02 0 0 0
5540 159 4 0.0000000000000000e+00 -7.3043847014379580e+01 -3.4003458841897533e+01 -1.2308548088806783e+02 0 0 0
5541 159 3 0.0000000000000000e+00 -7.2643501049701726e+01 -4.4269911880666101e+01 -1.2284141815484412e+02 0 0 0
1628 47 1 0.0000000000000000e+00 -6.2139648173613047e+01 -4.2623424612528197e+01 -1.2626893976314717e+02 0 0 0
3394 97 2 0.0000000000000000e+00 -5.3807578698546322e+01 -3.8432204898591479e+01 -1.1703534525399216e+02 0 0 0
1790 52 2 0.0000000000000000e+00 -6.1565297989472235e+01 -3.1135399516905576e+01 -1.2169463133986554e+02 0 0 0
3023 87 2 0.0000000000000000e+00 -4.0826026272715012e+01 -4.0037845962282667e+01 -1.1503542324896262e+02 0 0 0
3022 87 2 0.0000000000000000e+00 -4.1322688687956123e+01 -3.6699928021726279e+01 -1.2421426381398062e+02 0 0 0
3393 97 2 0.0000000000000000e+00 -5.0733511683998401e+01 -3.0879086394481142e+01 -1.2295089454861339e+02 0 0 0
4547 130 3 0.0000000000000000e+00 -3.1692011913689637e+01 -3.7616646968518118e+01 -1.2001008191085189e+02 0 0 0
6350 182 4 0.0000000000000000e+00 -8.8623382872188301e+01 -2.0074085072227657e+01 -1.1831228967533342e+02 0 0 0
5906 169 4 0.0000000000000000e+00 -7.5932774136073633e+01 -2.0566266177736118e+01 -1.1973035370210674e+02 0 0 0
3392 97 1 0.0000000000000000e+00 -4.5806978944498951e+01 -2.3282733731439517e+01 -1.1966122099935103e+02 0 0 0
4549 130 4 0.0000000000000000e+00 -3.6290003876355833e+01 -1.8584015179651459e+01 -1.2472435433909051e+02 0 0 0
4548 130 4 0.0000000000000000e+00 -3.2439190811924810e+01 -2.7470948117270336e+01 -1.2172509145711976e+02 0 0 0
3391 97 2 0.0000000000000000e+00 -3.7348660695097870e+01 -1.9752371675726540e+01 -1.1490550928471386e+02 0 0 0
3297 95 2 0.0000000000000000e+00 -1.6150716632623886e+02 -1.4337157803070415e+01 -1.2119681708372737e+02 0 0 0
3298 95 2 0.0000000000000000e+00 -1.5269360146622628e+02 -1.1366114427217248e+01 -1.2483975893920268e+02 0 0 0
3299 95 2 0.0000000000000000e+00 -1.4386094150988757e+02 -9.4013103176952253e+00 -1.2135052034794627e+02 0 0 0
6354 182 4 0.0000000000000000e+00 -1.0695146518875664e+02 -7.8829684078920765e+00 -1.2767916036596188e+02 0 0 0
6351 182 4 0.0000000000000000e+00 -8.6426011899471661e+01 -1.2691537078474827e+01 -1.2442408660837390e+02 0 0 0
735 21 2 0.0000000000000000e+00 -9.2883026925943284e+01 -8.3905436720378699e+00 -1.1437754642253584e+02 0 0 0
734 21 2 0.0000000000000000e+00 -8.3526703338913407e+01 -1.1832737569045683e+01 -1.1459845229942644e+02 0 0 0
733 21 2 0.0000000000000000e+00 -7.6114775236223679e+01 -9.8861397627431451e+00 -1.2122755113053310e+02 0 0 0
732 21 1 0.0000000000000000e+00 -7.0155297444270687e+01 -4.0365331919650673e+00 -1.1544688338373649e+02 0 0 0
5536 159 4 0.0000000000000000e+00 -6.2224394075531812e+01 -6.0276917306385878e+00 -1.2466142037177295e+02 0 0 0
5421 155 4 0.0000000000000000e+00 -5.5181020928860576e+01 -1.4393073790983927e+01 -1.2622127488210440e+02 0 0 0
5420 155 4 0.0000000000000000e+00 -5.3065668655533017e+01 -1.5553300647079544e+01 -1.1654571329299921e+02 0 0 0
1803 52 1 0.0000000000000000e+00 -4.6514402703997675e+01 -3.1862106848073979e+00 -1.1646057585389167e+02 0 0 0
6355 182 4 0.0000000000000000e+00 -1.1275830719754816e+02 -9.8314111910630442e-01 -1.2294079563203735e+02 0 0 0
6356 182 4 0.0000000000000000e+00 -1.1117935798071001e+02 5.6078883153883847e+00 -1.1569068410958819e+02 0 0 0
1811 52 2 0.0000000000000000e+00 -1.0165444160446496e+02 9.4972132283045951e+00 -1.2755259002273665e+02 0 0 0
580 17 2 0.0000000000000000e+00 -6.7160128777342194e+01 9.1115045717671492e+00 -1.2379354951926500e+02 0 0 0
5535 159 4 0.0000000000000000e+00 -5.8289272778103424e+01 -2.5440679732377216e+00 -1.1655387658940799e+02 0 0 0
1804 52 2 0.0000000000000000e+00 -4.7091606464254617e+01 -2.3323389102844851e+00 -1.2610488898813109e+02 0 0 0
5145 147 4 0.0000000000000000e+00 -5.0764898775862783e+01 5.8146017004362358e+00 -1.1906253056221304e+02 0 0 0
5144 147 4 0.0000000000000000e+00 -4.0868247906719894e+01 7.5502013295011574e+00 -1.1727818241972140e+02 0 0 0
5143 147 4 0.0000000000000000e+00 -3.2231705850846183e+01 3.2747674794742232e+00 -1.1979596460015911e+02 0 0 0
6322 181 4 0.0000000000000000e+00 -8.3462328038497617e+01 -1.1244783138944726e+02 -1.0245451436257825e+02 0 0 0
2088 60 2 0.0000000000000000e+00 -4.4602620224283108e+01 -1.0075932073629049e+02 -1.0060780630412528e+02 0 0 0
2548 73 2 0.0000000000000000e+00 -7.7316828384119773e+01 -8.7297299422548917e+01 -1.1310479786310107e+02 0 0 0
2085 60 2 0.0000000000000000e+00 -6.9230344709971448e+01 -8.5797287467901938e+01 -1.0710120054289811e+02 0 0 0
2086 60 2 0.0000000000000000e+00 -6.0948018434777104e+01 -9.0082423565560546e+01 -1.0482368770905059e+02 0 0 0
2087 60 2 0.0000000000000000e+00 -5.2137411709483096e+01 -9.4406092181165491e+01 -1.0236576729174554e+02 0 0 0
4729 136 3 0.0000000000000000e+00 -2.7219347027590612e+01 -8.9866867003721950e+01 -1.1027454181670579e+02 0 0 0
4728 136 4 0.0000000000000000e+00 -2.6859420288341813e+01 -9.9059909015724074e+01 -1.0771297486716065e+02 0 0 0
2526 73 2 0.0000000000000000e+00 -1.1178575201733116e+02 -7.8171323224043704e+01 -1.0056720707859390e+02 0 0 0
2628 76 2 0.0000000000000000e+00 -8.1764514200783822e+01 -7.5841998956960680e+01 -1.1201840810471556e+02 0 0 0
2547 73 2 0.0000000000000000e+00 -7.9901688873292827e+01 -8.3474445933561725e+01 -1.0371273237162964e+02 0 0 0
4750 136 3 0.0000000000000000e+00 -7.5079075188137224e+01 -7.3095050096176266e+01 -1.0492932765499057e+02 0 0 0
2631 76 2 0.0000000000000000e+00 -5.6859219609393080e+01 -8.1905264811915572e+01 -1.1107642801209897e+02 0 0 0
2084 60 2 0.0000000000000000e+00 -6.3018543537082763e+01 -7.8959318808999981e+01 -1.0450361680378924e+02 0 0 0
2632 76 2 0.0000000000000000e+00 -5.0532335183507179e+01 -8.3988016663023259e+01 -1.0407240106779891e+02 0 0 0
1634 47 2 0.0000000000000000e+00 -3.6069751953686328e+01 -7.6478961725192363e+01 -1.0099001074544580e+02 0 0 0
1635 47 1 0.0000000000000000e+00 -2.7254024371851820e+01 -8.1526329916104260e+01 -1.0343628479932055e+02 0 0 0
2522 73 2 0.0000000000000000e+00 -1.3311864014899356e+02 -6.0024091624148390e+01 -1.0529021678473256e+02 0 0 0
2523 73 2 0.0000000000000000e+00 -1.2852100578617794e+02 -6.5103440736298083e+01 -1.1239885350056161e+02 0 0 0
2524 73 1 0.0000000000000000e+00 -1.1791144069476951e+02 -6.6493004290599131e+01 -1.1249042516737548e+02 0 0 0
2525 73 2 0.0000000000000000e+00 -1.1000476890599850e+02 -7.1474937720565350e+01 -1.0781634988768646e+02 0 0 0
6259 179 4 0.0000000000000000e+00 -9.3689361919230080e+01 -5.9500242656575431e+01 -1.0502502280861252e+02 0 0 0
2069 60 1 0.0000000000000000e+00 -8.1398636459437114e+01 -6.4034467193280918e+01 -1.1082398836810944e+02 0 0 0
2070 60 2 0.0000000000000000e+00 -8.2556097172172144e+01 -6.2637176623370671e+01 -1.0176603510450991e+02 0 0 0
4749 136 4 0.0000000000000000e+00 -6.8976505984563957e+01 -6.8013273225497556e+01 -1.1109406270879197e+02 0 0 0
5544 159 4 0.0000000000000000e+00 -7.2196282928699688e+01 -6.2660096666300063e+01 -1.0257851768262391e+02 0 0 0
2083 60 1 0.0000000000000000e+00 -6.0774328510695256e+01 -6.9966826676523013e+01 -1.0049543936184992e+02 0 0 0
1633 47 2 0.0000000000000000e+00 -4.4887911703607472e+01 -7.1018552110317984e+01 -1.0101588029638256e+02 0 0 0
1631 47 2 0.0000000000000000e+00 -5.1361293491947677e+01 -6.1349253540726274e+01 -1.1194014273861707e+02 0 0 0
1632 47 2 0.0000000000000000e+00 -5.2242418586822417e+01 -6.4527319167474445e+01 -1.0278707582273320e+02 0 0 0
5130 147 4 0.0000000000000000e+00 -4.0419884114529729e+01 -6.5756838057331308e+01 -1.0809425131399512e+02 0 0 0
3026 87 2 0.0000000000000000e+00 -2.9624308724549174e+01 -6.6012515128885809e+01 -1.1249408487859581e+02 0 0 0
5129 147 4 0.0000000000000000e+00 -3.3066710640050545e+01 -6.1549460530544842e+01 -1.0309981918580024e+02 0 0 0
2521 73 2 0.0000000000000000e+00 -1.4167790779804204e+02 -5.5045040010801110e+01 -1.0358616162071175e+02 0 0 0
6492 186 4 0.0000000000000000e+00 -1.2544697530935507e+02 -5.4022749741890173e+01 -1.0981227801008924e+02 0 0 0
6491 186 4 0.0000000000000000e+00 -1.2945672660098421e+02 -5.0608503662839894e+01 -1.0124508606940690e+02 0 0 0
2932 84 2 0.0000000000000000e+00 -1.1696844895258253e+02 -5.6904661226751550e+01 -1.0530326372279887e+02 0 0 0
2931 84 2 0.0000000000000000e+00 -1.1246816906666484e+02 -5.2739708839187585e+01 -1.1274762873711190e+02 0 0 0
6260 179 4 0.0000000000000000e+00 -9.6077172815200910e+01 -4.9973429779591832e+01 -1.0850384943293446e+02 0 0 0
5912 169 3 0.0000000000000000e+00 -8.3423957494768786e+01 -5.2703692385306454e+01 -1.0962383748133550e+02 0 0 0
5543 159 4 0.0000000000000000e+00 -7.3002226536363025e+01 -5.4319448275845389e+01 -1.0727886855762731e+02 0 0 0
5111 147 4 0.0000000000000000e+00 -5.4786559618207292e+01 -5.1407931611429440e+01 -1.0912747052263052e+02 0 0 0
5112 147 4 0.0000000000000000e+00 -4.9123353455350603e+01 -4.5311961720062527e+01 -1.0357956177440417e+02 0 0 0
5131 147 4 0.0000000000000000e+00 -4.2531108043955754e+01 -5.6096563016162797e+01 -1.0862588404396448e+02 0 0 0
5132 147 4 0.0000000000000000e+00 -4.0121530679962596e+01 -4.6245466702348274e+01 -1.0657823431886530e+02 0 0 0
3025 87 2 0.0000000000000000e+00 -3.3514325446602477e+01 -5.6939182156392995e+01 -1.1376700740003970e+02 0 0 0
1528 44 2 0.0000000000000000e+00 -2.9567716387981321e+01 -5.1022384198490300e+01 -1.0452097147867210e+02 0 0 0
3294 95 1 0.0000000000000000e+00 -1.6001509106095531e+02 -3.1656366117750299e+01 -1.0405248209256740e+02 0 0 0
1717 50 2 0.0000000000000000e+00 -1.4219961422079692e+02 -3.8378914887787673e+01 -1.0494449231662944e+02 0 0 0
2927 84 2 0.0000000000000000e+00 -1.3490560235549427e+02 -4.1952285031493304e+01 -1.1282060233527368e+02 0 0 0
2926 84 2 0.0000000000000000e+00 -1.2820605521297364e+02 -3.7259937722579068e+01 -1.0669640197972141e+02 0 0 0
2930 84 1 0.0000000000000000e+00 -1.1092040216416203e+02 -4.2785768554201262e+01 -1.1391425226792416e+02 0 0 0
6261 179 4 0.0000000000000000e+00 -9.6308324409668742e+01 -4.2059790493059779e+01 -1.1412891869882367e+02 0 0 0
2908 84 2 0.0000000000000000e+00 -7.8990042291359330e+01 -4.1577974952291605e+01 -1.0599118621641135e+02 0 0 0
1792 52 2 0.0000000000000000e+00 -6.7622639583308796e+01 -3.1478277882607028e+01 -1.0314008736782036e+02 0 0 0
3395 97 2 0.0000000000000000e+00 -5.7785260336848232e+01 -4.1366549695493816e+01 -1.0833318387057153e+02 0 0 0
143 5 2 0.0000000000000000e+00 -5.4764656055175088e+01 -3.0688925382065214e+01 -1.0105371762692359e+02 0 0 0
5120 147 4 0.0000000000000000e+00 -4.2375189639709419e+01 -3.4365697590084515e+01 -1.0367434999843701e+02 0 0 0
5121 147 3 0.0000000000000000e+00 -4.0804123359209193e+01 -3.0913702677314344e+01 -1.1274171664439443e+02 0 0 0
5133 147 4 0.0000000000000000e+00 -3.1898423474854262e+01 -4.0264927833749212e+01 -1.0800899981705105e+02 0 0 0
5134 147 4 0.0000000000000000e+00 -2.6423321712642711e+01 -3.2567470229068725e+01 -1.1198322053124626e+02 0 0 0
6895 197 4 0.0000000000000000e+00 -1.8146391808192558e+02 -2.2997033906937176e+01 -1.0522240614710614e+02 0 0 0
3295 95 2 0.0000000000000000e+00 -1.6525277400435280e+02 -2.5359178283741112e+01 -1.1036261713677654e+02 0 0 0
1716 50 2 0.0000000000000000e+00 -1.4300613561022641e+02 -2.9845027664666581e+01 -1.1037041154328674e+02 0 0 0
6347 182 4 0.0000000000000000e+00 -1.1606330825980766e+02 -2.4582680695382670e+01 -1.1304485604971954e+02 0 0 0
5413 155 4 0.0000000000000000e+00 -1.1016312165165205e+02 -2.2322094916865264e+01 -1.0204261599565345e+02 0 0 0
6349 182 4 0.0000000000000000e+00 -9.6528350968074889e+01 -2.1223742551713329e+01 -1.1327738095235750e+02 0 0 0
6348 182 4 0.0000000000000000e+00 -1.0659943449426780e+02 -2.3103200535717651e+01 -1.1189393498790608e+02 0 0 0
5415 155 3 0.0000000000000000e+00 -9.1011413936952721e+01 -1.8079791840412664e+01 -1.0096459564284895e+02 0 0 0
5908 169 4 0.0000000000000000e+00 -7.8973066824389690e+01 -2.8366246576485278e+01 -1.0196014148419908e+02 0 0 0
5907 169 4 0.0000000000000000e+00 -7.9181175785815171e+01 -2.3935490126940092e+01 -1.1113066795768150e+02 0 0 0
1791 52 2 0.0000000000000000e+00 -6.3918191538665944e+01 -2.9963472276835038e+01 -1.1204024580235071e+02 0 0 0
5419 155 4 0.0000000000000000e+00 -5.6526618489867573e+01 -1.8541462990564970e+01 -1.0738211172672216e+02 0 0 0
142 5 2 0.0000000000000000e+00 -4.8065683841037810e+01 -2.4052469072037216e+01 -1.0536822198365971e+02 0 0 0
5122 147 4 0.0000000000000000e+00 -3.3554324530857038e+01 -2.6105520767762183e+01 -1.0769105974223847e+02 0 0 0
1897 55 2 0.0000000000000000e+00 -2.9323418639387246e+01 -2.0550771802075563e+01 -1.0151539326317152e+02 0 0 0
3296 95 2 0.0000000000000000e+00 -1.6664730152190580e+02 -1.6326708878957358e+01 -1.1254304771261263e+02 0 0 0
5407 155 4 0.0000000000000000e+00 -1.5564687167991138e+02 -5.3586876524616782e+00 -1.1198381402119024e+02 0 0 0
5408 155 3 0.0000000000000000e+00 -1.5317171533945913e+02 -1.3730085368959072e+01 -1.0716343799316454e+02 0 0 0
3303 95 2 0.0000000000000000e+00 -1.6059580411512661e+02 -5.6230108587924175e+00 -1.0230812316367518e+02 0 0 0
3300 95 2 0.0000000000000000e+00 -1.3866826284443451e+02 -1.2335252560829691e+01 -1.1314475937050346e+02 0 0 0
5409 155 4 0.0000000000000000e+00 -1.4475047384400418e+02 -1.6357697834577870e+01 -1.0149391457863157e+02 0 0 0
3301 95 1 0.0000000000000000e+00 -1.4449491160973818e+02 -7.0186742422688200e+00 -1.0588961451742159e+02 0 0 0
6346 182 3 0.0000000000000000e+00 -1.1920376465015576e+02 -1.6149168542600496e+01 -1.0772806583111475e+02 0 0 0
2503 72 1 0.0000000000000000e+00 -1.1082185495780057e+02 -9.1250215191010806e+00 -1.1086817719563109e+02 0 0 0
2504 72 2 0.0000000000000000e+00 -1.0231721804812180e+02 -3.8225184027426762e+00 -1.0801418122545304e+02 0 0 0
5416 155 4 0.0000000000000000e+00 -8.1388403154049442e+01 -1.5635781765242756e+01 -1.0256571674510364e+02 0 0 0
5905 169 3 0.0000000000000000e+00 -7.4193605461893483e+01 -1.3630256223914010e+01 -1.1164233450301218e+02 0 0 0
5904 169 4 0.0000000000000000e+00 -6.9660960303885304e+01 -1.0359674440575727e+01 -1.0356457336340077e+02 0 0 0
1801 52 2 0.0000000000000000e+00 -5.3243752218589968e+01 -8.8823716173529412e+00 -1.0194445789229043e+02 0 0 0
141 5 2 0.0000000000000000e+00 -4.4965324736249173e+01 -1.5002078507598950e+01 -1.0392987423308644e+02 0 0 0
1802 52 2 0.0000000000000000e+00 -4.6285757365186790e+01 -3.1742613649295484e+00 -1.0639482890159489e+02 0 0 0
6185 177 3 0.0000000000000000e+00 -2.6670649817431599e+01 -7.4364907035243153e+00 -1.1122884514470606e+02 0 0 0
3390 97 2 0.0000000000000000e+00 -3.6525068579883687e+01 -1.1201516811354089e+01 -1.0986112037629786e+02 0 0 0
3389 97 2 0.0000000000000000e+00 -3.6477370282079356e+01 -5.5753773513114391e+00 -1.0184501375233205e+02 0 0 0
3304 95 2 0.0000000000000000e+00 -1.6994831969812518e+02 -1.5570942870410855e+00 -1.0170079249649166e+02 0 0 0
5405 155 4 0.0000000000000000e+00 -1.5021319974442167e+02 1.0736415938823548e+01 -1.0918915438605019e+02 0 0 0
5406 155 4 0.0000000000000000e+00 -1.5700175937480213e+02 4.0539140683902781e+00 -1.1143479099299522e+02 0 0 0
3302 95 2 0.0000000000000000e+00 -1.5140819566721370e+02 -1.0066949294987702e+00 -1.0107951981380532e+02 0 0 0
2501 72 2 0.0000000000000000e+00 -1.2415478191438191e+02 -1.3246221407776253e+00 -1.0087651939458752e+02 0 0 0
2502 72 2 0.0000000000000000e+00 -1.1604091322665624e+02 -1.9257239911185722e+00 -1.0714377218745823e+02 0 0 0
6357 182 4 0.0000000000000000e+00 -1.1030790384311909e+02 7.8913526927256061e+00 -1.0576237087766376e+02 0 0 0
2505 72 2 0.0000000000000000e+00 -9.7056031343417644e+01 3.7526518234978656e+00 -1.0559605342196889e+02 0 0 0
2056 59 2 0.0000000000000000e+00 -8.3094231061835288e+01 -2.6162719122139416e-01 -1.0115271884177363e+02 0 0 0
730 21 2 0.0000000000000000e+00 -8.2227713684279479e+01 1.0067889622126071e+01 -1.1220130685535753e+02 0 0 0
731 21 2 0.0000000000000000e+00 -7.5349284177129007e+01 3.4373883781494197e+00 -1.1340872255444647e+02 0 0 0
2057 59 2 0.0000000000000000e+00 -7.4162321356844458e+01 -2.0179553256722764e+00 -1.0444496808120238e+02 0 0 0
2059 59 2 0.0000000000000000e+00 -6.2341197251996512e+01 7.2184795326532285e+00 -1.1141966682243201e+02 0 0 0
2058 59 2 0.0000000000000000e+00 -6.4572955324483956e+01 -1.4867782797844769e+00 -1.0761257530631634e+02 0 0 0
5534 159 3 0.0000000000000000e+00 -5.3020493604189532e+01 2.8442430392693447e+00 -1.0990796802251749e+02 0 0 0
5533 159 4 0.0000000000000000e+00 -5.2567359933745628e+01 1.0351793691430526e+01 -1.0368181858124990e+02 0 0 0
6184 177 4 0.0000000000000000e+00 -3.1850923374347037e+01 1.1621868654264569e+00 -1.0856892516859847e+02 0 0 0
6183 177 4 0.0000000000000000e+00 -3.3446350326251448e+01 1.0250419879273949e+01 -1.1151424440296070e+02 0 0 0