LAMMPS data file via write_data, version 5 Jun 2019, timestep = 300000000

7000 atoms
4 atom types
7290 bonds
3 bond types
6600 angles
2 angle types

-5.0000000000000000e+02 5.0000000000000000e+02 xlo xhi
-5.0000000000000000e+02 5.0000000000000000e+02 ylo yhi
-5.0000000000000000e+02 5.0000000000000000e+02 zlo zhi

Masses

1 1000
2 1000
3 1000
4 1000

Pair Coeffs # lj/cut

1 0.296 10
2 0.296 10
3 0.296 10
4 0.296 10

Angle Coeffs # cosine

1 2
2 2

Atoms # full

2550 73 2 0.0000000000000000e+00 -6.0542352734980845e+01 -2.1657928145770047e+01 -1.5443141399371532e+02 0 0 0
2551 73 2 0.0000000000000000e+00 -5.3889256231154846e+01 -1.7400221847398598e+01 -1.6029565823115053e+02 0 0 0
6500 186 3 0.0000000000000000e+00 -4.9122429761721506e+01 -1.6768224792861439e+01 -1.4951493084665998e+02 0 0 0
6501 186 4 0.0000000000000000e+00 -4.0126163996392101e+01 -1.7691349822340591e+01 -1.5243255496985526e+02 0 0 0
6502 186 4 0.0000000000000000e+00 -3.0981983216279382e+01 -2.1244139695832242e+01 -1.4950265638895996e+02 0 0 0
2552 73 1 0.0000000000000000e+00 -4.8295459823693122e+01 -9.3780802270058228e+00 -1.5764887458035645e+02 0 0 0
2553 73 2 0.0000000000000000e+00 -4.0461903720246994e+01 -3.8689916718385673e+00 -1.5547312882258976e+02 0 0 0
2554 73 2 0.0000000000000000e+00 -3.1027713450835062e+01 -4.5853368801398258e+00 -1.5227529335845836e+02 0 0 0
6494 186 4 0.0000000000000000e+00 -9.7517752207156320e+01 -2.8759357127863527e+01 -1.3492321430858988e+02 0 0 0
2547 73 2 0.0000000000000000e+00 -7.1912924002302120e+01 -3.6241577514803922e+01 -1.3600925542750844e+02 0 0 0
2548 73 2 0.0000000000000000e+00 -7.0007619514378362e+01 -2.8730860912426998e+01 -1.4283057247629293e+02 0 0 0
2549 73 2 0.0000000000000000e+00 -6.0861954970069846e+01 -2.6677341671631606e+01 -1.4582470060604558e+02 0 0 0
6519 187 4 0.0000000000000000e+00 -5.4902116503435131e+01 -3.3473982623349961e+01 -1.3461756346054119e+02 0 0 0
6495 186 4 0.0000000000000000e+00 -8.9719135138813584e+01 -2.3182871917934182e+01 -1.3399128732933423e+02 0 0 0
6497 186 4 0.0000000000000000e+00 -7.6700791366660383e+01 -1.4824899151685299e+01 -1.3922542896975563e+02 0 0 0
6498 186 4 0.0000000000000000e+00 -6.6439296535994771e+01 -1.4421049316182780e+01 -1.4049367230544513e+02 0 0 0
6499 186 4 0.0000000000000000e+00 -5.6755750084048699e+01 -1.5690954564772207e+01 -1.4399851172887747e+02 0 0 0
6520 187 4 0.0000000000000000e+00 -5.8069571365731619e+01 -2.4359034188149788e+01 -1.3571846325857524e+02 0 0 0
2910 84 2 0.0000000000000000e+00 -4.7293133729256319e+01 -1.9770450509835243e+01 -1.3504205289096274e+02 0 0 0
5539 159 4 0.0000000000000000e+00 -3.8943200354302405e+01 -2.2734646965566121e+01 -1.4030525261074652e+02 0 0 0
5538 159 4 0.0000000000000000e+00 -3.5772571527583203e+01 -1.3245629618709826e+01 -1.3989873604826076e+02 0 0 0
4743 136 3 0.0000000000000000e+00 -2.6991157800146649e+01 -1.9278435970144251e+01 -1.3409255189107202e+02 0 0 0
4742 136 4 0.0000000000000000e+00 -2.1438553513217137e+01 -1.2913858335110692e+01 -1.3916824841578651e+02 0 0 0
6503 186 4 0.0000000000000000e+00 -2.2937497699950182e+01 -2.3117539838183383e+01 -1.4453633863624057e+02 0 0 0
2912 84 2 0.0000000000000000e+00 -5.4954024609948789e+01 -5.7307770603300305e+00 -1.3609204516073885e+02 0 0 0
2911 84 2 0.0000000000000000e+00 -4.6758884488164490e+01 -1.0299408799732470e+01 -1.3978212644665896e+02 0 0 0
5537 159 4 0.0000000000000000e+00 -3.2102470660322737e+01 -3.9811058370989096e+00 -1.3825964228003315e+02 0 0 0
1791 52 2 0.0000000000000000e+00 -1.1162806141442634e+02 5.2918269819662394e+00 -1.3810750850600422e+02 0 0 0
1792 52 2 0.0000000000000000e+00 -1.0992628470741084e+02 1.4863451666118259e+01 -1.3831121874292504e+02 0 0 0
5909 169 4 0.0000000000000000e+00 -8.3266523387791381e+01 1.4091177852529649e+01 -1.3796729331985844e+02 0 0 0
5910 169 4 0.0000000000000000e+00 -8.2379041752984094e+01 4.9476727197382040e+00 -1.3364038185802062e+02 0 0 0
1801 52 2 0.0000000000000000e+00 -5.9977147413034693e+01 1.2433481859061391e+01 -1.3878760368466388e+02 0 0 0
2555 73 2 0.0000000000000000e+00 -3.2590559290377804e+01 3.4531287789691469e+00 -1.4575877367637116e+02 0 0 0
5535 159 4 0.0000000000000000e+00 -3.2785409643978205e+01 1.3565597604216739e+01 -1.4051902519862114e+02 0 0 0
5536 159 4 0.0000000000000000e+00 -3.3017289165199863e+01 5.5670316189661353e+00 -1.3463307775020914e+02 0 0 0
5908 169 4 0.0000000000000000e+00 -8.0728480504324608e+01 2.3725961527438926e+01 -1.3753018071800517e+02 0 0 0
5901 169 4 0.0000000000000000e+00 -4.9779182638926457e+01 2.7226981100318348e+01 -1.3609965144655894e+02 0 0 0
1802 52 2 0.0000000000000000e+00 -5.2087104370699358e+01 1.7179173262484017e+01 -1.4348017879711458e+02 0 0 0
1803 52 1 0.0000000000000000e+00 -4.4908085513736062e+01 2.3980790647086916e+01 -1.4506007430333892e+02 0 0 0
5534 159 3 0.0000000000000000e+00 -3.5772279125568076e+01 2.3386178130553748e+01 -1.3939291311555689e+02 0 0 0
3204 92 2 0.0000000000000000e+00 -2.7753984608400934e+01 2.7503326834877544e+01 -1.4581911664465920e+02 0 0 0
3203 92 1 0.0000000000000000e+00 -2.1674929345931581e+01 2.3445705037476966e+01 -1.3800093271441784e+02 0 0 0
4751 136 4 0.0000000000000000e+00 -6.8971145803720304e+01 -5.3474444745900968e+01 -1.2167794373983885e+02 0 0 0
4750 136 3 0.0000000000000000e+00 -5.8933516571462818e+01 -5.5895915448287163e+01 -1.2135745945556367e+02 0 0 0
4749 136 4 0.0000000000000000e+00 -5.0626520951635854e+01 -5.9983782733406429e+01 -1.2089171718380459e+02 0 0 0
4748 136 4 0.0000000000000000e+00 -4.2659923272822141e+01 -5.4699072768530236e+01 -1.2013424493342343e+02 0 0 0
4726 136 4 0.0000000000000000e+00 -2.7493588244107748e+01 -5.6393386388216662e+01 -1.2123948022204760e+02 0 0 0
6252 179 4 0.0000000000000000e+00 -1.0771771027363182e+02 -5.0588878369667420e+01 -1.2122476829624480e+02 0 0 0
6253 179 4 0.0000000000000000e+00 -1.0023328534795660e+02 -4.2760201754773909e+01 -1.2299233160321762e+02 0 0 0
2544 73 2 0.0000000000000000e+00 -8.9958898518767981e+01 -4.9224853146194327e+01 -1.2142131271297750e+02 0 0 0
2545 73 1 0.0000000000000000e+00 -8.4695015028380027e+01 -4.8337844932991423e+01 -1.2953490593782251e+02 0 0 0
2546 73 2 0.0000000000000000e+00 -7.5740375992287511e+01 -4.4233997101993836e+01 -1.3139594957302518e+02 0 0 0
4752 136 4 0.0000000000000000e+00 -7.7924169574084132e+01 -4.7636190932022210e+01 -1.2214413708693820e+02 0 0 0
6518 187 4 0.0000000000000000e+00 -4.9996133651084193e+01 -3.8449483938679641e+01 -1.2812401297469725e+02 0 0 0
6254 179 4 0.0000000000000000e+00 -9.6164565966877063e+01 -3.5563560182412715e+01 -1.2716767103304393e+02 0 0 0
6255 179 3 0.0000000000000000e+00 -8.6350200100508204e+01 -3.7150046799674371e+01 -1.2917888868333449e+02 0 0 0
6256 179 4 0.0000000000000000e+00 -8.1235269209301137e+01 -2.9828147567349873e+01 -1.2493160695886110e+02 0 0 0
2908 84 2 0.0000000000000000e+00 -6.0162268354891175e+01 -2.5485085835799410e+01 -1.2229812106366559e+02 0 0 0
5540 159 4 0.0000000000000000e+00 -4.2336171881984278e+01 -2.6993768765099198e+01 -1.3163032021919230e+02 0 0 0
5541 159 3 0.0000000000000000e+00 -4.4023572378915070e+01 -2.7225250265127816e+01 -1.2194627568055067e+02 0 0 0
4745 136 4 0.0000000000000000e+00 -3.4976517981133263e+01 -3.3080574133258715e+01 -1.2370134474381852e+02 0 0 0
4744 136 4 0.0000000000000000e+00 -3.1965344743407698e+01 -2.6887352094765582e+01 -1.2989559872887409e+02 0 0 0
2237 64 1 0.0000000000000000e+00 -2.2021123811763502e+01 -2.7181502935894514e+01 -1.2777041980608577e+02 0 0 0
6265 179 4 0.0000000000000000e+00 -1.2892524942431791e+02 -1.2581846709423489e+01 -1.3145778733636089e+02 0 0 0
6493 186 3 0.0000000000000000e+00 -1.0465494992589221e+02 -2.3874642772118264e+01 -1.3046972200715282e+02 0 0 0
6492 186 4 0.0000000000000000e+00 -1.1319164357144265e+02 -2.3934285633395053e+01 -1.2468262719669863e+02 0 0 0
2523 73 2 0.0000000000000000e+00 -1.0467764402593839e+02 -1.4041806899082726e+01 -1.2519230715884139e+02 0 0 0
2524 73 1 0.0000000000000000e+00 -9.5870292567129326e+01 -1.9669135016056256e+01 -1.2552863275639454e+02 0 0 0
6496 186 4 0.0000000000000000e+00 -8.2238511339638478e+01 -1.6606041412992216e+01 -1.3111124242802597e+02 0 0 0
2069 60 1 0.0000000000000000e+00 -8.4257851015272550e+01 -1.0852943790358369e+01 -1.2326432399336764e+02 0 0 0
2070 60 2 0.0000000000000000e+00 -7.5159019783181165e+01 -1.4563660060193895e+01 -1.2215737539259280e+02 0 0 0
2071 60 2 0.0000000000000000e+00 -6.5221543655002506e+01 -1.2839741436639567e+01 -1.2199496532879823e+02 0 0 0
6521 187 3 0.0000000000000000e+00 -5.9098866738927860e+01 -1.4596272994503002e+01 -1.3263943540225716e+02 0 0 0
2909 84 1 0.0000000000000000e+00 -5.2042993122292629e+01 -2.1064610063666471e+01 -1.2672471719206889e+02 0 0 0
1628 47 1 0.0000000000000000e+00 -4.1808003154521302e+01 -1.6635809285393684e+01 -1.2083592349437198e+02 0 0 0
1627 47 2 0.0000000000000000e+00 -3.3374947987201459e+01 -1.4969134402026469e+01 -1.2596487766026769e+02 0 0 0
2238 64 2 0.0000000000000000e+00 -2.4480269228766428e+01 -1.9642589333725859e+01 -1.2202015103355511e+02 0 0 0
6264 179 4 0.0000000000000000e+00 -1.2281764518875538e+02 -6.7816106522429056e+00 -1.2524402806587504e+02 0 0 0
1790 52 2 0.0000000000000000e+00 -1.1820636765577936e+02 -1.0626212377713247e+00 -1.3336310431240585e+02 0 0 0
2521 73 2 0.0000000000000000e+00 -1.1013420358563540e+02 -8.9708188539395426e+00 -1.3273357669635411e+02 0 0 0
2522 73 2 0.0000000000000000e+00 -1.0909792773800736e+02 -4.7124985777355457e+00 -1.2351380746055722e+02 0 0 0
2068 60 2 0.0000000000000000e+00 -8.4762843432180546e+01 -1.2000505633402561e+00 -1.2530885410499586e+02 0 0 0
5911 169 4 0.0000000000000000e+00 -7.4639508566188042e+01 -1.0387550582093550e+00 -1.3185102554528993e+02 0 0 0
2913 84 2 0.0000000000000000e+00 -6.3912937352303771e+01 -4.3517488671918496e+00 -1.3200668983466625e+02 0 0 0
5912 169 3 0.0000000000000000e+00 -7.5156185914402641e+01 -4.8413981233328212e+00 -1.2283491176554107e+02 0 0 0
2914 84 2 0.0000000000000000e+00 -6.3459870566222946e+01 2.3612607895533881e+00 -1.2501147817442876e+02 0 0 0
6522 187 4 0.0000000000000000e+00 -5.5851694818978977e+01 -8.7532553504442632e+00 -1.2509942084586922e+02 0 0 0
1626 47 2 0.0000000000000000e+00 -2.4778323740159966e+01 -1.0701919920085011e+01 -1.2922981437404610e+02 0 0 0
1787 52 2 0.0000000000000000e+00 -1.3182531098123710e+02 1.4199369794451538e+01 -1.2480514529939397e+02 0 0 0
1789 52 1 0.0000000000000000e+00 -1.2207924984177609e+02 2.9748332171152025e+00 -1.2506947882476294e+02 0 0 0
1788 52 2 0.0000000000000000e+00 -1.2185835968660227e+02 1.2806636995199977e+01 -1.2748095679311281e+02 0 0 0
5421 155 4 0.0000000000000000e+00 -1.0324669243017334e+02 3.9355521089025558e+00 -1.3133927078553666e+02 0 0 0
5422 155 3 0.0000000000000000e+00 -1.1184699602635045e+02 6.5029809313772233e+00 -1.2654225321131975e+02 0 0 0
5420 155 4 0.0000000000000000e+00 -9.4777649272159096e+01 8.7259908957031076e+00 -1.3252303098354673e+02 0 0 0
5419 155 4 0.0000000000000000e+00 -8.8447633913996100e+01 1.6134663857624126e+01 -1.3044732586788359e+02 0 0 0
2915 84 2 0.0000000000000000e+00 -5.8927524815051655e+01 1.0874689210138783e+01 -1.2176779114744183e+02 0 0 0
1786 52 2 0.0000000000000000e+00 -1.3972707139282431e+02 2.0310263279028337e+01 -1.2832165240317278e+02 0 0 0
1793 52 2 0.0000000000000000e+00 -1.0743917272784930e+02 2.0022409564044580e+01 -1.3069721685465612e+02 0 0 0
1794 52 2 0.0000000000000000e+00 -1.0670538729768552e+02 2.0183748800747630e+01 -1.2063461514174706e+02 0 0 0
5418 155 4 0.0000000000000000e+00 -9.5208076168292351e+01 2.3182128773646308e+01 -1.3284374932653745e+02 0 0 0
6340 182 4 0.0000000000000000e+00 -9.3822707160284267e+01 2.1455069207728840e+01 -1.2011563781197796e+02 0 0 0
6341 182 4 0.0000000000000000e+00 -8.6074142333204279e+01 2.4121831888089993e+01 -1.2470837872474546e+02 0 0 0
1800 52 2 0.0000000000000000e+00 -6.3014925991455407e+01 1.9719051520019818e+01 -1.3326959067714870e+02 0 0 0
1799 52 2 0.0000000000000000e+00 -7.0144609238413267e+01 2.4231302840459609e+01 -1.2742072238301883e+02 0 0 0
5899 169 4 0.0000000000000000e+00 -5.7949157929223027e+01 2.7926483293080338e+01 -1.2091268536428582e+02 0 0 0
6180 177 4 0.0000000000000000e+00 -4.3405007833004262e+01 2.1849898825955698e+01 -1.2060720153895869e+02 0 0 0
4550 130 4 0.0000000000000000e+00 -2.8391274405163259e+01 1.7665675016005146e+01 -1.3283702215322367e+02 0 0 0
6181 177 4 0.0000000000000000e+00 -3.3674572958482798e+01 1.9615106861030526e+01 -1.2306644768512660e+02 0 0 0
3202 92 2 0.0000000000000000e+00 -2.2324096500735177e+01 2.5263139566609979e+01 -1.2778050280358525e+02 0 0 0
1540 44 2 0.0000000000000000e+00 -7.6468679378514452e+01 -8.1478410609406865e+01 -1.0979380214989064e+02 0 0 0
2088 60 2 0.0000000000000000e+00 -3.9369891528254335e+01 -7.2681348263293373e+01 -1.0788227889099291e+02 0 0 0
2087 60 2 0.0000000000000000e+00 -4.6691183493360292e+01 -6.6458832694451075e+01 -1.0911419789450339e+02 0 0 0
2627 76 2 0.0000000000000000e+00 -7.5741756300198290e+01 -5.6036384385548466e+01 -1.0999683139517600e+02 0 0 0
2631 76 2 0.0000000000000000e+00 -3.8186805870743719e+01 -5.1856262784090774e+01 -1.1100307559142333e+02 0 0 0
4727 136 4 0.0000000000000000e+00 -2.2320136500118355e+01 -6.0997609585328746e+01 -1.1424852294479709e+02 0 0 0
2632 76 2 0.0000000000000000e+00 -2.9359403555063963e+01 -5.2042236873477563e+01 -1.0721503898960250e+02 0 0 0
6251 179 4 0.0000000000000000e+00 -1.1277498069458248e+02 -4.9454324630923303e+01 -1.1318513388496933e+02 0 0 0
6250 179 4 0.0000000000000000e+00 -1.1507083543192998e+02 -4.1442759065653384e+01 -1.0796388769182684e+02 0 0 0
2543 73 2 0.0000000000000000e+00 -9.7019309519109669e+01 -4.9351580334597379e+01 -1.1425182798217743e+02 0 0 0
4753 136 4 0.0000000000000000e+00 -8.3406904699377151e+01 -3.9975584732437454e+01 -1.1733867432900706e+02 0 0 0
2628 76 2 0.0000000000000000e+00 -6.7099037070286997e+01 -5.1424746959851895e+01 -1.1145178262409630e+02 0 0 0
2629 76 1 0.0000000000000000e+00 -5.8233701961739804e+01 -4.8212702439699939e+01 -1.1321374586706966e+02 0 0 0
6516 187 4 0.0000000000000000e+00 -5.1130686482770550e+01 -4.0910406320936211e+01 -1.0927155205973644e+02 0 0 0
6517 187 4 0.0000000000000000e+00 -5.0866860372977236e+01 -4.0853724445543975e+01 -1.1902231560945718e+02 0 0 0
2630 76 2 0.0000000000000000e+00 -4.8019182276999828e+01 -4.9383856018219170e+01 -1.1252024964817456e+02 0 0 0
2206 64 2 0.0000000000000000e+00 -4.0529840732936584e+01 -3.9129236898340992e+01 -1.0647021330674340e+02 0 0 0
4747 136 4 0.0000000000000000e+00 -3.4102712538127754e+01 -4.9299998944753504e+01 -1.1946069227774926e+02 0 0 0
4746 136 4 0.0000000000000000e+00 -3.0752372878182324e+01 -4.0270683025772939e+01 -1.1837959164891637e+02 0 0 0
1634 47 2 0.0000000000000000e+00 -2.2523892248894157e+01 -4.1323734470803174e+01 -1.0788380631628127e+02 0 0 0
2525 73 2 0.0000000000000000e+00 -9.2455102190815722e+01 -2.7273828907498533e+01 -1.1916232809301744e+02 0 0 0
2526 73 2 0.0000000000000000e+00 -9.6147013478289125e+01 -2.8489313048806927e+01 -1.1035938064781658e+02 0 0 0
4754 136 4 0.0000000000000000e+00 -8.7205626643894306e+01 -3.6418217620020251e+01 -1.0854250268271434e+02 0 0 0
6257 179 4 0.0000000000000000e+00 -8.0829847926272805e+01 -2.5888710603103771e+01 -1.1545822542095006e+02 0 0 0
5544 159 4 0.0000000000000000e+00 -6.2935550851994329e+01 -2.9125435584359852e+01 -1.0714786971296456e+02 0 0 0
5543 159 4 0.0000000000000000e+00 -5.7906529306536783e+01 -3.5227243075780613e+01 -1.1353732651279719e+02 0 0 0
5542 159 4 0.0000000000000000e+00 -4.8242754542267498e+01 -3.2165974758229957e+01 -1.1494061931876664e+02 0 0 0
3025 87 2 0.0000000000000000e+00 -2.1515787281655026e+01 -2.6217213691275830e+01 -1.1209100237637391e+02 0 0 0
6490 186 4 0.0000000000000000e+00 -1.2431077209738766e+02 -1.6562108499359478e+01 -1.1438346770491678e+02 0 0 0
6491 186 4 0.0000000000000000e+00 -1.1924224301155473e+02 -2.3980232841949462e+01 -1.1737246383188977e+02 0 0 0
2929 84 2 0.0000000000000000e+00 -1.1416852653238490e+02 -1.6928132969911367e+01 -1.1035708349536272e+02 0 0 0
2928 84 2 0.0000000000000000e+00 -1.0714766446089864e+02 -1.1407503399956274e+01 -1.1535485527728507e+02 0 0 0
6259 179 4 0.0000000000000000e+00 -9.4606732796129648e+01 -1.2894944814684278e+01 -1.1110495390415635e+02 0 0 0
6258 179 4 0.0000000000000000e+00 -8.6003817860755092e+01 -1.7449773196832986e+01 -1.1347113056990463e+02 0 0 0
2907 84 2 0.0000000000000000e+00 -6.5385990627804560e+01 -2.1737784398720752e+01 -1.1478433301930876e+02 0 0 0
2906 84 2 0.0000000000000000e+00 -7.0776022190030758e+01 -1.3859294157651769e+01 -1.1170419112087077e+02 0 0 0
2072 60 2 0.0000000000000000e+00 -6.0193245135434935e+01 -1.1890439854780217e+01 -1.1307598847640367e+02 0 0 0
1629 47 2 0.0000000000000000e+00 -4.7702870028596870e+01 -1.4295767956933375e+01 -1.1318748765888085e+02 0 0 0
2239 64 2 0.0000000000000000e+00 -3.0050243867154659e+01 -1.2485666225013381e+01 -1.1729046088778253e+02 0 0 0
5425 155 4 0.0000000000000000e+00 -1.2715052774874577e+02 1.0037677063233008e+00 -1.1072489305097935e+02 0 0 0
6263 179 4 0.0000000000000000e+00 -1.1793642800015682e+02 -7.7345004597268678e+00 -1.1735878395528485e+02 0 0 0
6262 179 3 0.0000000000000000e+00 -1.1474256665626291e+02 -7.5019791000504812e+00 -1.0783620542818319e+02 0 0 0
2926 84 2 0.0000000000000000e+00 -9.9555668003641472e+01 1.1644431007954168e+00 -1.0749726986006250e+02 0 0 0
2927 84 2 0.0000000000000000e+00 -9.9361272847643193e+01 -5.5028834574966412e+00 -1.1506298657626321e+02 0 0 0
5913 169 4 0.0000000000000000e+00 -6.7193523451379775e+01 -2.8439143824646895e+00 -1.1708537478205081e+02 0 0 0
6523 187 4 0.0000000000000000e+00 -5.7272876084129237e+01 -2.9201092602508316e+00 -1.1706153857142262e+02 0 0 0
6524 187 4 0.0000000000000000e+00 -5.0201375331442527e+01 -2.4006533724692143e+00 -1.1024941103685626e+02 0 0 0
2240 64 2 0.0000000000000000e+00 -3.7503008294144784e+01 -6.1426581356709562e+00 -1.1413197898544730e+02 0 0 0
5424 155 4 0.0000000000000000e+00 -1.1922533468791883e+02 7.2504946518973172e+00 -1.1310827827987642e+02 0 0 0
5423 155 4 0.0000000000000000e+00 -1.1287462807088748e+02 1.2421876818936186e+01 -1.1857784847205221e+02 0 0 0
6336 182 4 0.0000000000000000e+00 -1.0514548552460873e+02 4.9975675491239491e+00 -1.1567699473384297e+02 0 0 0
6337 182 4 0.0000000000000000e+00 -1.0798633305754727e+02 9.2236669242490876e+00 -1.0724358643626809e+02 0 0 0
2067 60 2 0.0000000000000000e+00 -8.7762424140262141e+01 6.1476599865455661e+00 -1.1926297563538247e+02 0 0 0
2066 60 2 0.0000000000000000e+00 -8.6294544826431604e+01 8.7724834681761799e+00 -1.0972910263930397e+02 0 0 0
5914 169 4 0.0000000000000000e+00 -6.6081666421269716e+01 3.8394622285615592e+00 -1.1004017909046301e+02 0 0 0
5897 169 4 0.0000000000000000e+00 -7.0196497395675891e+01 1.4555116500496169e+01 -1.1310245283409942e+02 0 0 0
5117 147 4 0.0000000000000000e+00 -4.7013074608814037e+01 8.5784753593384622e+00 -1.1337480082944820e+02 0 0 0
5118 147 4 0.0000000000000000e+00 -3.7345976142232999e+01 9.4477187529086599e+00 -1.1648880323134993e+02 0 0 0
6182 177 4 0.0000000000000000e+00 -2.7918260839759583e+01 1.3986418373226870e+01 -1.1791038361094490e+02 0 0 0
5119 147 4 0.0000000000000000e+00 -2.9815123914066245e+01 3.5976772533490182e+00 -1.1174123452253663e+02 0 0 0
6339 182 3 0.0000000000000000e+00 -9.4347913302053101e+01 1.8043361568116552e+01 -1.1107484648198344e+02 0 0 0
1796 52 1 0.0000000000000000e+00 -9.2533021579317733e+01 2.9390228391530322e+01 -1.1162381342216803e+02 0 0 0
1795 52 2 0.0000000000000000e+00 -1.0087942245309647e+02 2.8205377249465045e+01 -1.1653242622444945e+02 0 0 0
1797 52 2 0.0000000000000000e+00 -8.3798515834737600e+01 2.5561615972140597e+01 -1.1275824595809594e+02 0 0 0
1798 52 2 0.0000000000000000e+00 -7.5998028422652681e+01 2.6440392328386462e+01 -1.1883109187464279e+02 0 0 0
5898 169 3 0.0000000000000000e+00 -6.5756518760082329e+01 2.3501264979834183e+01 -1.1622147257740524e+02 0 0 0
2916 84 1 0.0000000000000000e+00 -5.7345712398609884e+01 1.6676251014052731e+01 -1.1391626057110314e+02 0 0 0
3389 97 2 0.0000000000000000e+00 -3.9392021313188600e+01 1.9224110247024573e+01 -1.1102441089992995e+02 0 0 0
3388 97 2 0.0000000000000000e+00 -3.4163786915605478e+01 2.8017379315076795e+01 -1.1323168901608256e+02 0 0 0
3201 92 2 0.0000000000000000e+00 -2.4860063238861105e+01 2.4881028794979944e+01 -1.1790896845029141e+02 0 0 0
3200 92 2 0.0000000000000000e+00 -2.7040994877718482e+01 2.2660971686366558e+01 -1.0876814522549508e+02 0 0 0
6328 181 4 0.0000000000000000e+00 -5.1012539721429995e+01 -9.8905119039289232e+01 -1.0102050686941361e+02 0 0 0
1538 44 2 0.0000000000000000e+00 -6.7374844664522570e+01 -8.0736343960836109e+01 -9.2932092769139260e+01 0 0 0
6325 181 3 0.0000000000000000e+00 -5.4007258149487441e+01 -7.9338583369555593e+01 -9.7622218470927351e+01 0 0 0
6326 181 4 0.0000000000000000e+00 -5.8784714437676456e+01 -8.7381417112268323e+01 -9.5101326983044899e+01 0 0 0
6329 181 4 0.0000000000000000e+00 -4.3874789574870526e+01 -9.1844704818729298e+01 -9.7372032265071468e+01 0 0 0
2089 60 2 0.0000000000000000e+00 -3.5870069568514459e+01 -8.1326397674652426e+01 -1.0421942216711915e+02 0 0 0
2090 60 1 0.0000000000000000e+00 -2.8597727875279372e+01 -8.8388308016257696e+01 -1.0225869717281819e+02 0 0 0
5429 156 3 0.0000000000000000e+00 -2.5487297465766492e+01 -8.3236570118984787e+01 -9.2970127536973266e+01 0 0 0
2091 60 2 0.0000000000000000e+00 -2.1284409590806643e+01 -9.1173910031995433e+01 -9.6499982133606068e+01 0 0 0
1539 44 2 0.0000000000000000e+00 -7.2537890776973924e+01 -7.7519612371033958e+01 -1.0085166517386972e+02 0 0 0
6324 181 4 0.0000000000000000e+00 -4.9497286876026550e+01 -7.0129719020422286e+01 -9.8751738466672009e+01 0 0 0
6323 181 4 0.0000000000000000e+00 -4.0567148546155671e+01 -6.8890759714311187e+01 -9.6330037238283069e+01 0 0 0
5430 156 4 0.0000000000000000e+00 -3.3667815644747215e+01 -7.8402499380623709e+01 -9.3877358212296869e+01 0 0 0
5431 156 4 0.0000000000000000e+00 -2.6441873951528937e+01 -7.4641696459373989e+01 -1.0032097625972565e+02 0 0 0
2626 76 2 0.0000000000000000e+00 -8.4066972962057335e+01 -5.8648464486025397e+01 -1.0585741850015908e+02 0 0 0
2084 60 2 0.0000000000000000e+00 -6.7057773876936338e+01 -5.1752132421583831e+01 -9.3697078841100947e+01 0 0 0
2085 60 2 0.0000000000000000e+00 -6.1400484279835467e+01 -5.7759479338594254e+01 -9.9868288562471605e+01 0 0 0
2086 60 2 0.0000000000000000e+00 -5.3240961571241925e+01 -5.9506601157047207e+01 -1.0491347020975500e+02 0 0 0
6321 181 4 0.0000000000000000e+00 -3.4656336689552219e+01 -5.3832844626283396e+01 -9.4931797991680625e+01 0 0 0
6322 181 4 0.0000000000000000e+00 -3.2039739482417723e+01 -6.3879568134130224e+01 -9.5399427648116998e+01 0 0 0
2633 76 2 0.0000000000000000e+00 -2.4596988420819901e+01 -6.0263301023902258e+01 -1.0478866128839452e+02 0 0 0
2539 73 2 0.0000000000000000e+00 -1.2756585650234733e+02 -4.4428600577539676e+01 -9.7709350902668433e+01 0 0 0
2540 73 2 0.0000000000000000e+00 -1.2008877844104370e+02 -5.0737833372854539e+01 -1.0034651093495118e+02 0 0 0
2541 73 2 0.0000000000000000e+00 -1.1004835308827246e+02 -4.9369373887455360e+01 -1.0019645872312236e+02 0 0 0
2542 73 2 0.0000000000000000e+00 -1.0262279413491098e+02 -4.9238096871967009e+01 -1.0639211111086364e+02 0 0 0
2528 73 2 0.0000000000000000e+00 -1.0249167241518602e+02 -4.1818755033401168e+01 -9.7526702055969437e+01 0 0 0
3744 107 4 0.0000000000000000e+00 -8.3467842952803309e+01 -4.7894337582133630e+01 -9.7900234301131718e+01 0 0 0
3745 107 4 0.0000000000000000e+00 -7.6196428417460282e+01 -4.7383936564072030e+01 -1.0422491730833875e+02 0 0 0
6515 187 4 0.0000000000000000e+00 -5.7506826921617460e+01 -4.1847942007102311e+01 -1.0163735252962634e+02 0 0 0
6514 187 3 0.0000000000000000e+00 -5.5025363863541180e+01 -4.9651683374352011e+01 -9.4996017947373090e+01 0 0 0
2207 64 2 0.0000000000000000e+00 -4.4133436026300629e+01 -3.9056643741998712e+01 -9.7653145113445660e+01 0 0 0
1531 44 2 0.0000000000000000e+00 -2.1356271842434605e+01 -4.7932093855665308e+01 -9.3628675534218800e+01 0 0 0
4759 136 4 0.0000000000000000e+00 -1.1901445855518932e+02 -2.4924051428624939e+01 -1.0015389797123517e+02 0 0 0
6249 179 4 0.0000000000000000e+00 -1.1423606161016576e+02 -3.5302748580593338e+01 -9.9891830026377733e+01 0 0 0
4758 136 4 0.0000000000000000e+00 -1.0974759347868907e+02 -2.6898663925073365e+01 -1.0358473954888339e+02 0 0 0
2527 73 2 0.0000000000000000e+00 -9.9357832105167219e+01 -3.4373342312426033e+01 -1.0239776839352962e+02 0 0 0
4755 136 4 0.0000000000000000e+00 -8.4221374109890590e+01 -2.7688983949115613e+01 -1.0405998667151911e+02 0 0 0
5545 159 4 0.0000000000000000e+00 -7.0078958959173264e+01 -2.7854535024954771e+01 -1.0068282242942429e+02 0 0 0
5546 159 4 0.0000000000000000e+00 -7.2440794650219900e+01 -3.6898970916693706e+01 -9.7533402322003326e+01 0 0 0
1632 47 2 0.0000000000000000e+00 -3.8367153015367620e+01 -2.9458637849614217e+01 -1.0589800878951019e+02 0 0 0
1631 47 2 0.0000000000000000e+00 -4.3028773979889806e+01 -2.5635527474205432e+01 -9.7488160583929030e+01 0 0 0
5131 147 4 0.0000000000000000e+00 -2.1803821285074541e+01 -3.0904362536424262e+01 -1.0045814222069275e+02 0 0 0
1633 47 2 0.0000000000000000e+00 -3.0359657977114203e+01 -3.5717557775487776e+01 -1.0609053477632600e+02 0 0 0
5130 147 4 0.0000000000000000e+00 -2.7298516059777640e+01 -3.7024781322297876e+01 -9.5438664529714913e+01 0 0 0
6489 186 4 0.0000000000000000e+00 -1.2580919752742307e+02 -1.2406267378709648e+01 -1.0585813752262081e+02 0 0 0
4760 136 4 0.0000000000000000e+00 -1.2674285108927084e+02 -2.3229984394482383e+01 -9.4270178999970611e+01 0 0 0
2930 84 1 0.0000000000000000e+00 -1.1464186695653493e+02 -1.6021094538129962e+01 -1.0064874819998614e+02 0 0 0
928 27 1 0.0000000000000000e+00 -1.0355115830721300e+02 -1.6886235800639241e+01 -9.5759988450856042e+01 0 0 0
4757 136 3 0.0000000000000000e+00 -1.0220139456344927e+02 -2.0973967111239070e+01 -1.0627573959807151e+02 0 0 0
4756 136 4 0.0000000000000000e+00 -9.1784229783893210e+01 -2.1308811769315021e+01 -1.0558490763100906e+02 0 0 0
3733 107 4 0.0000000000000000e+00 -9.3286173956603292e+01 -2.2196295120349543e+01 -9.6293811046266796e+01 0 0 0
3732 107 4 0.0000000000000000e+00 -8.8489958005286255e+01 -1.3901043072408696e+01 -1.0021068098205296e+02 0 0 0
6312 181 4 0.0000000000000000e+00 -8.0085649514436838e+01 -1.3200778755020128e+01 -9.4468623186585617e+01 0 0 0
281 9 2 0.0000000000000000e+00 -6.5139357225862668e+01 -1.7616518644668595e+01 -9.6437790987643822e+01 0 0 0
1630 47 2 0.0000000000000000e+00 -4.5659995083425812e+01 -1.8689051057748497e+01 -1.0436629648587399e+02 0 0 0
5132 147 4 0.0000000000000000e+00 -2.2028799179721773e+01 -2.0336597273928856e+01 -1.0056374743611113e+02 0 0 0
1720 50 2 0.0000000000000000e+00 -1.3719002817403933e+02 -7.1425720113508859e+00 -9.4511096310737756e+01 0 0 0
6488 186 4 0.0000000000000000e+00 -1.2558059242149912e+02 -7.0672640834697829e+00 -9.7823786730326418e+01 0 0 0
6260 179 4 0.0000000000000000e+00 -1.0324365987460899e+02 -1.0391700203375468e+01 -1.0631054127954960e+02 0 0 0
6261 179 4 0.0000000000000000e+00 -1.0974560278973460e+02 -6.7301975483932015e+00 -9.9730187442266526e+01 0 0 0
3731 107 4 0.0000000000000000e+00 -9.1206497269093475e+01 -5.9728904389400244e+00 -1.0544943256082813e+02 0 0 0
3730 107 4 0.0000000000000000e+00 -9.1947911061371599e+01 2.6798644788855426e+00 -9.9252400266917832e+01 0 0 0
927 27 2 0.0000000000000000e+00 -1.0251494021177098e+02 -7.5101918957617109e+00 -9.2895144103435385e+01 0 0 0
2075 60 2 0.0000000000000000e+00 -7.6160776542415618e+01 2.0615575730653468e+00 -9.4276884563243200e+01 0 0 0
2073 60 2 0.0000000000000000e+00 -6.4253253454936939e+01 -7.7009426719345404e+00 -1.0523849780526426e+02 0 0 0
2074 60 2 0.0000000000000000e+00 -7.1014232842546804e+01 -1.9953271738501901e+00 -1.0082981397783522e+02 0 0 0
6525 187 4 0.0000000000000000e+00 -4.3265785137184601e+01 -3.1279942510146581e+00 -1.0191567195959243e+02 0 0 0
6526 187 4 0.0000000000000000e+00 -3.8207552559257437e+01 -9.9118219716476541e-01 -9.2969033401720111e+01 0 0 0
1722 50 2 0.0000000000000000e+00 -1.2846694667998847e+02 6.9149603815547920e+00 -9.4319989749499001e+01 0 0 0
6338 182 4 0.0000000000000000e+00 -9.9772072528483136e+01 1.2982585713217112e+01 -1.0451961569416967e+02 0 0 0
2925 84 2 0.0000000000000000e+00 -1.0190632659577174e+02 3.7932862332061674e+00 -9.8197170814033683e+01 0 0 0
2924 84 2 0.0000000000000000e+00 -9.8099032310215833e+01 1.2040991658804662e+01 -9.3903022423422087e+01 0 0 0
3729 107 4 0.0000000000000000e+00 -8.7722586579894823e+01 1.2450825861570820e+01 -9.9914189195535599e+01 0 0 0
5895 169 4 0.0000000000000000e+00 -7.8598329180143082e+01 1.2129177807083986e+01 -9.6493415700711694e+01 0 0 0
5915 169 4 0.0000000000000000e+00 -6.3369800935166808e+01 8.9471685604792413e+00 -1.0108877769629994e+02 0 0 0
5896 169 4 0.0000000000000000e+00 -7.4673448072963765e+01 1.0209492382765522e+01 -1.0575906095963731e+02 0 0 0
5116 147 4 0.0000000000000000e+00 -5.2628655786260509e+01 8.1711787050367644e+00 -1.0507255762462142e+02 0 0 0
5115 147 4 0.0000000000000000e+00 -5.4889536638440667e+01 5.8358514176795735e+00 -9.6142757658535416e+01 0 0 0
2918 84 2 0.0000000000000000e+00 -4.8672929889692099e+01 1.5690611757927931e+01 -9.6349848330049184e+01 0 0 0
3390 97 2 0.0000000000000000e+00 -3.8494030845749784e+01 1.1217308299051112e+01 -1.0485845495409706e+02 0 0 0
142 5 2 0.0000000000000000e+00 -3.5993332081594332e+01 1.5144667912392945e+01 -9.5703076208025919e+01 0 0 0
5120 147 4 0.0000000000000000e+00 -2.2627549754532428e+01 8.2350809459302141e+00 -1.0615313640726501e+02 0 0 0
3391 97 2 0.0000000000000000e+00 -3.0657359119620665e+01 6.6673428151301319e+00 -1.0099839052408461e+02 0 0 0
3392 97 1 0.0000000000000000e+00 -2.3292762697153730e+01 6.1625990560663304e+00 -9.4235555830283673e+01 0 0 0
3305 95 2 0.0000000000000000e+00 -1.6125865809008198e+02 2.0915181384039201e+01 -9.4719166018064314e+01 0 0 0