LAMMPS data file via write_data, version 5 Jun 2019, timestep = 400000000

7000 atoms
4 atom types
7292 bonds
3 bond types
6600 angles
2 angle types

-5.0000000000000000e+02 5.0000000000000000e+02 xlo xhi
-5.0000000000000000e+02 5.0000000000000000e+02 ylo yhi
-5.0000000000000000e+02 5.0000000000000000e+02 zlo zhi

Masses

1 1000
2 1000
3 1000
4 1000

Pair Coeffs # lj/cut

1 0.296 10
2 0.296 10
3 0.296 10
4 0.296 10

Angle Coeffs # cosine

1 2
2 2

Atoms # full

4727 136 4 0.0000000000000000e+00 -5.2816317781242851e+01 -4.0339285863460375e+01 -1.5018800241339997e+02 0 0 0
4728 136 4 0.0000000000000000e+00 -4.8596821055245407e+01 -3.2452195779807326e+01 -1.5421249386403193e+02 0 0 0
4729 136 3 0.0000000000000000e+00 -3.9432988105522632e+01 -2.9344636617833963e+01 -1.5480266513745309e+02 0 0 0
6498 186 4 0.0000000000000000e+00 -6.9912568953601891e+01 -1.2146305217378188e+01 -1.5086633851563798e+02 0 0 0
2239 64 2 0.0000000000000000e+00 -4.1023950127488831e+01 -6.6819591585681826e+00 -1.5093218234878003e+02 0 0 0
2240 64 2 0.0000000000000000e+00 -4.1789565898819596e+01 -2.3477520067002184e+00 -1.6020429481608994e+02 0 0 0
5915 169 4 0.0000000000000000e+00 -3.1472468497102597e+01 7.5700578199806801e+00 -1.5263786435453889e+02 0 0 0
4726 136 4 0.0000000000000000e+00 -5.7747247371391794e+01 -4.8961545124577803e+01 -1.4873405977664868e+02 0 0 0
1635 47 1 0.0000000000000000e+00 -3.7320543699730202e+01 -3.2537597302471063e+01 -1.4434037894919913e+02 0 0 0
1634 47 2 0.0000000000000000e+00 -4.5263234315092845e+01 -2.7087214908233868e+01 -1.4148470335376859e+02 0 0 0
4730 136 4 0.0000000000000000e+00 -3.3845417385201742e+01 -2.3232858055048208e+01 -1.4980937729247603e+02 0 0 0
6496 186 4 0.0000000000000000e+00 -8.7674332713061105e+01 -1.7606102359172091e+01 -1.4495130710144915e+02 0 0 0
6495 186 4 0.0000000000000000e+00 -8.2409376792439900e+01 -1.6601589903174890e+01 -1.3742536567282039e+02 0 0 0
6497 186 4 0.0000000000000000e+00 -7.9505211473642021e+01 -1.3387119475452669e+01 -1.4838475460488186e+02 0 0 0
6499 186 4 0.0000000000000000e+00 -6.2589198460563885e+01 -7.7114264181754919e+00 -1.4584201842938171e+02 0 0 0
2552 73 1 0.0000000000000000e+00 -5.6994706831610451e+01 -1.8457425019294785e+01 -1.3737854079589755e+02 0 0 0
6500 186 3 0.0000000000000000e+00 -5.3406331003662189e+01 -1.1015485646737698e+01 -1.4458587012016002e+02 0 0 0
6501 186 4 0.0000000000000000e+00 -4.4879651069397383e+01 -1.5682148173604622e+01 -1.4216425019143290e+02 0 0 0
6502 186 4 0.0000000000000000e+00 -3.4824395659296954e+01 -1.7772842432367110e+01 -1.3958729913557681e+02 0 0 0
4731 136 4 0.0000000000000000e+00 -2.6485325996622016e+01 -1.6775659604338689e+01 -1.4933118078851473e+02 0 0 0
4732 136 4 0.0000000000000000e+00 -1.7782655948492874e+01 -1.3061848497594280e+01 -1.4663259996034955e+02 0 0 0
2238 64 2 0.0000000000000000e+00 -4.4685249486552493e+01 -3.4592150888465825e+00 -1.4228330945663114e+02 0 0 0
2555 73 2 0.0000000000000000e+00 -5.2506699763509040e+01 7.1985505537191088e+00 -1.3666112612611354e+02 0 0 0
5914 169 4 0.0000000000000000e+00 -3.4220681368817992e+01 2.0424060024363397e+00 -1.4429378231759429e+02 0 0 0
2066 60 2 0.0000000000000000e+00 -2.0210464277480352e+01 8.6830007946988630e+00 -1.4040717827249694e+02 0 0 0
5913 169 4 0.0000000000000000e+00 -3.9151080256243382e+01 8.8996216475742216e+00 -1.3957591543005569e+02 0 0 0
6254 179 4 0.0000000000000000e+00 -9.6506884808430314e+01 -5.7013801544334477e+01 -1.3170830301631906e+02 0 0 0
6253 179 4 0.0000000000000000e+00 -1.0178361567067329e+02 -5.3764709483476416e+01 -1.2390780572801026e+02 0 0 0
6255 179 3 0.0000000000000000e+00 -8.9257462442368535e+01 -4.9858215812605408e+01 -1.3325771631252499e+02 0 0 0
2228 64 2 0.0000000000000000e+00 -3.3365129225272113e+01 -5.7417585723912140e+01 -1.2528682152340782e+02 0 0 0
2545 73 1 0.0000000000000000e+00 -9.5512049727306348e+01 -4.4279589805933199e+01 -1.2550322065523576e+02 0 0 0
6256 179 4 0.0000000000000000e+00 -8.7341794093617736e+01 -3.9742533211835244e+01 -1.3397540957482434e+02 0 0 0
2547 73 2 0.0000000000000000e+00 -7.9696760537329951e+01 -4.2642951378962181e+01 -1.2448558701357351e+02 0 0 0
2550 73 2 0.0000000000000000e+00 -6.1594707733339249e+01 -3.3911065129194554e+01 -1.2780642772108868e+02 0 0 0
4746 136 4 0.0000000000000000e+00 -4.1760866626782239e+01 -3.8801515004691645e+01 -1.2442468268617364e+02 0 0 0
6257 179 4 0.0000000000000000e+00 -8.1838883484741430e+01 -3.1689036416978887e+01 -1.3143187407151450e+02 0 0 0
6258 179 4 0.0000000000000000e+00 -7.3154744673558852e+01 -2.7463594018179943e+01 -1.2828154999327788e+02 0 0 0
2551 73 2 0.0000000000000000e+00 -5.8763946514206602e+01 -2.7878869159647458e+01 -1.3588393372920510e+02 0 0 0
4745 136 4 0.0000000000000000e+00 -4.6259778642009550e+01 -2.9996169125889178e+01 -1.2471025975625753e+02 0 0 0
4744 136 4 0.0000000000000000e+00 -5.1344545128791658e+01 -2.1159437963571662e+01 -1.2414201710670513e+02 0 0 0
1633 47 2 0.0000000000000000e+00 -4.3669078324832135e+01 -2.2700064315392673e+01 -1.3218905040513656e+02 0 0 0
1636 47 2 0.0000000000000000e+00 -3.2957470615021556e+01 -3.2424184316608333e+01 -1.3542252574883415e+02 0 0 0
4544 130 4 0.0000000000000000e+00 -1.6108153573379894e+01 -2.4032115301961447e+01 -1.3544596357265769e+02 0 0 0
1637 47 2 0.0000000000000000e+00 -2.5345685939792684e+01 -2.9949607311295956e+01 -1.2920873610500004e+02 0 0 0
6504 186 4 0.0000000000000000e+00 -2.1166578538655301e+01 -1.8801583829959142e+01 -1.2503048931963532e+02 0 0 0
6503 186 4 0.0000000000000000e+00 -2.6885550777650071e+01 -1.9501230330047374e+01 -1.3288007337202404e+02 0 0 0
1638 47 2 0.0000000000000000e+00 -1.6180926187799511e+01 -3.0329883129422214e+01 -1.2545831167806784e+02 0 0 0
6494 186 4 0.0000000000000000e+00 -7.8079870387606888e+01 -1.6008814345699616e+01 -1.2865945570766741e+02 0 0 0
2553 73 2 0.0000000000000000e+00 -5.6833464383610881e+01 -9.3003632978262960e+00 -1.3344581742387132e+02 0 0 0
4743 136 3 0.0000000000000000e+00 -4.7130244687628618e+01 -1.2878573804409935e+01 -1.2708120269123665e+02 0 0 0
1632 47 2 0.0000000000000000e+00 -3.8044036440231920e+01 -1.6939560150321395e+01 -1.2636090305876553e+02 0 0 0
3024 87 2 0.0000000000000000e+00 -2.8158876339893961e+01 -1.2232505317490093e+01 -1.2350058850704245e+02 0 0 0
4545 130 4 0.0000000000000000e+00 -1.6463242867536209e+01 -1.4375605172558185e+01 -1.3303490173001225e+02 0 0 0
3023 87 2 0.0000000000000000e+00 -2.7308519571019961e+01 -6.9488281463700092e+00 -1.3214324224036892e+02 0 0 0
2927 84 2 0.0000000000000000e+00 -8.2915618006908645e+01 7.3436760062164357e+00 -1.2669923634416287e+02 0 0 0
2554 73 2 0.0000000000000000e+00 -5.9379997531264301e+01 3.2074120188046612e-01 -1.3390038173846082e+02 0 0 0
4742 136 4 0.0000000000000000e+00 -4.2299591817325734e+01 -4.6175455727342039e+00 -1.2561802123099527e+02 0 0 0
2237 64 1 0.0000000000000000e+00 -4.8105914440306258e+01 -3.1549868945368882e+00 -1.3272554807747710e+02 0 0 0
2236 64 2 0.0000000000000000e+00 -5.3432545564348743e+01 -2.8354552327121243e+00 -1.2503482945714649e+02 0 0 0
4741 136 4 0.0000000000000000e+00 -3.3918162156579690e+01 -6.7942644949037101e-01 -1.2775843585882977e+02 0 0 0
3022 87 2 0.0000000000000000e+00 -2.0493329942463120e+01 -1.8117345511272374e+00 -1.2658362379013190e+02 0 0 0
2067 60 2 0.0000000000000000e+00 -2.4256946902171492e+01 7.0375778690075972e+00 -1.3154917251048369e+02 0 0 0
2925 84 2 0.0000000000000000e+00 -9.8376895483047392e+01 1.7894711328606402e+01 -1.2348002974087221e+02 0 0 0
2926 84 2 0.0000000000000000e+00 -9.0961510399110097e+01 1.3409216236564822e+01 -1.2802484255568294e+02 0 0 0
2069 60 1 0.0000000000000000e+00 -4.1074174560471974e+01 9.1815001907909650e+00 -1.2931422062660968e+02 0 0 0
2068 60 2 0.0000000000000000e+00 -3.1841337185331668e+01 1.3242492596389434e+01 -1.2946949932940120e+02 0 0 0
5912 169 3 0.0000000000000000e+00 -4.0704361462690855e+01 1.8286615857887881e+01 -1.3609857847976170e+02 0 0 0
5539 159 4 0.0000000000000000e+00 -3.2542534290093229e+01 2.2457925912208491e+01 -1.2488704476844481e+02 0 0 0
2093 60 2 0.0000000000000000e+00 -3.6337629781979594e+01 -8.8169468815969921e+01 -1.1696702258770389e+02 0 0 0
2094 60 2 0.0000000000000000e+00 -2.6097045904496856e+01 -8.8700631100787376e+01 -1.1861525903667162e+02 0 0 0
2095 60 2 0.0000000000000000e+00 -1.8480054422473962e+01 -8.8957722237242848e+01 -1.1191589378733397e+02 0 0 0
2092 60 2 0.0000000000000000e+00 -4.4826770253202717e+01 -8.3466424895949274e+01 -1.1476218159384760e+02 0 0 0
2091 60 2 0.0000000000000000e+00 -4.4442838205320321e+01 -7.5060106189677754e+01 -1.1035970541851637e+02 0 0 0
2226 64 2 0.0000000000000000e+00 -3.2467656207783293e+01 -7.6031771555615620e+01 -1.1727022124037130e+02 0 0 0
2227 64 2 0.0000000000000000e+00 -3.3414794800324607e+01 -6.6915077624708999e+01 -1.2209727826246007e+02 0 0 0
6252 179 4 0.0000000000000000e+00 -1.0347837192432516e+02 -5.5165683467880463e+01 -1.1416755971868818e+02 0 0 0
2546 73 2 0.0000000000000000e+00 -8.7645414408001770e+01 -4.7690087801384429e+01 -1.2035074463477171e+02 0 0 0
4751 136 4 0.0000000000000000e+00 -6.9779020078122102e+01 -4.7617922311968918e+01 -1.1363810519023123e+02 0 0 0
2229 64 2 0.0000000000000000e+00 -2.6186377454571723e+01 -5.3659355652396535e+01 -1.1951859545435347e+02 0 0 0
2544 73 2 0.0000000000000000e+00 -9.9247629945832017e+01 -4.1784307563183027e+01 -1.1624442758121565e+02 0 0 0
2543 73 2 0.0000000000000000e+00 -1.0501678625977178e+02 -3.6911884897532111e+01 -1.0979670900875750e+02 0 0 0
4753 136 4 0.0000000000000000e+00 -8.3169465884918452e+01 -3.5994045214310788e+01 -1.0968662235985167e+02 0 0 0
4752 136 4 0.0000000000000000e+00 -7.8879795674017473e+01 -4.4670213481341783e+01 -1.1174516346316847e+02 0 0 0
2548 73 2 0.0000000000000000e+00 -7.1726030576999989e+01 -3.7643439811465768e+01 -1.2084518136022838e+02 0 0 0
2549 73 2 0.0000000000000000e+00 -6.3140904794378223e+01 -4.1710290433049401e+01 -1.2274490388599123e+02 0 0 0
2521 73 2 0.0000000000000000e+00 -5.4688702943425227e+01 -3.6497498603269584e+01 -1.1213248951006879e+02 0 0 0
4748 136 4 0.0000000000000000e+00 -4.6365492069210326e+01 -4.3209509978429672e+01 -1.1161787699722643e+02 0 0 0
4747 136 4 0.0000000000000000e+00 -3.7365367824272610e+01 -4.1312296635421959e+01 -1.1512088542282436e+02 0 0 0
2230 64 1 0.0000000000000000e+00 -2.1065294614357079e+01 -4.5612865428792631e+01 -1.1880745982832033e+02 0 0 0
2231 64 2 0.0000000000000000e+00 -2.6053358231408470e+01 -3.6739732678343437e+01 -1.2012643821599589e+02 0 0 0
3027 87 2 0.0000000000000000e+00 -1.7623733123063658e+01 -3.3811498770885493e+01 -1.1316304966217881e+02 0 0 0
2525 73 2 0.0000000000000000e+00 -8.8365792597010397e+01 -2.1820504405223890e+01 -1.1191646871555088e+02 0 0 0
2524 73 1 0.0000000000000000e+00 -8.0201258748783161e+01 -2.4642377490897136e+01 -1.1603088106622343e+02 0 0 0
2523 73 2 0.0000000000000000e+00 -7.0705941818942406e+01 -2.7258293300115305e+01 -1.1382424178970125e+02 0 0 0
6259 179 4 0.0000000000000000e+00 -6.6972687343424070e+01 -2.3338119491540027e+01 -1.2169468253792105e+02 0 0 0
2522 73 2 0.0000000000000000e+00 -6.2033480318586541e+01 -3.2012266206414374e+01 -1.1782319794020013e+02 0 0 0
2233 64 2 0.0000000000000000e+00 -3.9477688276849690e+01 -2.3831485375199485e+01 -1.1358465782411542e+02 0 0 0
2232 64 2 0.0000000000000000e+00 -3.2832679044525086e+01 -3.0881063582034784e+01 -1.1654974029746592e+02 0 0 0
3026 87 2 0.0000000000000000e+00 -2.1616501495078495e+01 -2.5750044946807972e+01 -1.1752549604439893e+02 0 0 0
6492 186 4 0.0000000000000000e+00 -8.9969092667451150e+01 -6.7956081795167718e+00 -1.2058128305094536e+02 0 0 0
6493 186 3 0.0000000000000000e+00 -8.3634922398428301e+01 -1.4952661693233436e+01 -1.2029273231658713e+02 0 0 0
6260 179 4 0.0000000000000000e+00 -7.1315469734848918e+01 -1.5359502538995857e+01 -1.1747885185901504e+02 0 0 0
2234 64 2 0.0000000000000000e+00 -4.6004757234821874e+01 -1.6065739578711177e+01 -1.1403247419281161e+02 0 0 0
2235 64 2 0.0000000000000000e+00 -4.9662099484506712e+01 -7.6091999642732029e+00 -1.1673296943297895e+02 0 0 0
3025 87 2 0.0000000000000000e+00 -2.8546723144528883e+01 -1.8534871615057682e+01 -1.1601678584092708e+02 0 0 0
1631 47 2 0.0000000000000000e+00 -3.7368476748488561e+01 -1.2662620338478138e+01 -1.1747428902045692e+02 0 0 0
6505 186 4 0.0000000000000000e+00 -1.8237413529874139e+01 -1.5499499665309223e+01 -1.1659112183598022e+02 0 0 0
6491 186 4 0.0000000000000000e+00 -9.2523185955151860e+01 -4.1694710964343438e+00 -1.1133309404429377e+02 0 0 0
2928 84 2 0.0000000000000000e+00 -7.7572041791721404e+01 2.4712543711905166e+00 -1.2025132388847001e+02 0 0 0
2929 84 2 0.0000000000000000e+00 -7.3251289526857562e+01 -3.3281120934800459e+00 -1.1358052844376780e+02 0 0 0
2070 60 2 0.0000000000000000e+00 -4.6471142350897367e+01 7.2891918595761016e+00 -1.2138595344376093e+02 0 0 0
5542 159 4 0.0000000000000000e+00 -4.8466926170563241e+01 2.7252218806684185e+00 -1.1248986537248875e+02 0 0 0
5541 159 3 0.0000000000000000e+00 -3.9583860934381583e+01 5.7825245615684384e+00 -1.1450360994344292e+02 0 0 0
4740 136 4 0.0000000000000000e+00 -2.9857456682605275e+01 5.8908290437418875e+00 -1.2196342157850314e+02 0 0 0
1368 40 2 0.0000000000000000e+00 -2.8879888039230313e+01 5.9738871323629086e+00 -1.1004436477230013e+02 0 0 0
3021 87 1 0.0000000000000000e+00 -1.6726821218092496e+01 -2.0848096798558799e+00 -1.1723360067951049e+02 0 0 0
4739 136 4 0.0000000000000000e+00 -2.1221723839906875e+01 7.0759707756117090e+00 -1.1658683201731192e+02 0 0 0
4760 136 4 0.0000000000000000e+00 -7.9331425186342287e+01 8.8468228297933695e+00 -1.1175366771830339e+02 0 0 0
2072 60 2 0.0000000000000000e+00 -5.5486598414574864e+01 2.0270792061139048e+01 -1.1058528953018930e+02 0 0 0
2071 60 2 0.0000000000000000e+00 -5.0112426910872422e+01 1.5671373598448884e+01 -1.1816533325540810e+02 0 0 0
5540 159 4 0.0000000000000000e+00 -3.4910885672533823e+01 1.4210884598784238e+01 -1.1917583842650099e+02 0 0 0
1626 47 2 0.0000000000000000e+00 -3.3913344242736379e+01 2.2035603016733873e+01 -1.1096493323913855e+02 0 0 0
1367 40 2 0.0000000000000000e+00 -2.6146010112571599e+01 1.5548014355631301e+01 -1.1181324013832347e+02 0 0 0
2626 76 2 0.0000000000000000e+00 -6.7791791754535055e+01 -7.8166958001151158e+01 -1.0044692100194567e+02 0 0 0
2225 64 2 0.0000000000000000e+00 -3.1349259467592695e+01 -7.6637184526198652e+01 -1.0728183736947500e+02 0 0 0
2224 64 2 0.0000000000000000e+00 -3.0666417389053596e+01 -7.7107085755024514e+01 -9.7518581954516620e+01 0 0 0
5430 156 4 0.0000000000000000e+00 -4.0222024448161015e+01 -7.4020134715789496e+01 -9.8542987561090456e+01 0 0 0
2627 76 2 0.0000000000000000e+00 -6.7809567638328389e+01 -6.8409211636049335e+01 -1.0341655944407704e+02 0 0 0
2628 76 2 0.0000000000000000e+00 -6.0531965927903400e+01 -6.1832737841391236e+01 -1.0336472264949612e+02 0 0 0
2089 60 2 0.0000000000000000e+00 -5.9995614857152468e+01 -7.0662788485089649e+01 -9.8205770342039855e+01 0 0 0
2090 60 1 0.0000000000000000e+00 -5.2447259575551598e+01 -7.3264836703248648e+01 -1.0443295369335740e+02 0 0 0
2220 64 2 0.0000000000000000e+00 -4.6576321149811406e+01 -6.2477174402272105e+01 -1.0054103950650291e+02 0 0 0
5431 156 4 0.0000000000000000e+00 -3.4378155934588158e+01 -6.7096118209615724e+01 -1.0309058302892873e+02 0 0 0
6251 179 4 0.0000000000000000e+00 -1.1048788306539690e+02 -5.4533022025408336e+01 -1.0696822420052358e+02 0 0 0
6250 179 4 0.0000000000000000e+00 -1.1508031230350304e+02 -4.9149490026892309e+01 -1.0000670117589920e+02 0 0 0
4750 136 3 0.0000000000000000e+00 -6.1922327072964663e+01 -4.9369899845522838e+01 -1.0723912517043682e+02 0 0 0
2629 76 1 0.0000000000000000e+00 -5.5579911959715346e+01 -5.4541492353850849e+01 -1.0012697619312372e+02 0 0 0
2219 64 2 0.0000000000000000e+00 -4.5987029979884632e+01 -5.5477501094037002e+01 -1.0804313485289458e+02 0 0 0
2218 64 2 0.0000000000000000e+00 -3.7352132338769842e+01 -5.1228956816215359e+01 -1.0946033145805174e+02 0 0 0
5432 156 4 0.0000000000000000e+00 -2.9445043871509419e+01 -5.8732447562472125e+01 -1.0573951029280832e+02 0 0 0
2632 76 2 0.0000000000000000e+00 -2.7694251432418966e+01 -5.0113722421862050e+01 -9.7950487387176878e+01 0 0 0
5433 156 4 0.0000000000000000e+00 -1.9077966327952449e+01 -5.8630126659772074e+01 -1.0825304984020164e+02 0 0 0
2085 60 2 0.0000000000000000e+00 -7.3935382525457115e+01 -4.2354915802272636e+01 -1.0167514848641181e+02 0 0 0
2084 60 2 0.0000000000000000e+00 -6.7635049793283230e+01 -3.8341927911633022e+01 -1.0828682738690355e+02 0 0 0
4192 120 4 0.0000000000000000e+00 -5.6627308440945839e+01 -3.4854417295115844e+01 -1.0009263023921095e+02 0 0 0
4749 136 4 0.0000000000000000e+00 -5.3330777552138905e+01 -4.5019759825570510e+01 -1.0411086969753728e+02 0 0 0
2217 64 2 0.0000000000000000e+00 -2.9140470039320139e+01 -4.5595401297357597e+01 -1.0951388254333929e+02 0 0 0
4194 120 4 0.0000000000000000e+00 -4.0253427916513402e+01 -3.3595271587289176e+01 -1.0811262532969265e+02 0 0 0
1383 40 1 0.0000000000000000e+00 -3.0564937584067547e+01 -3.5668072237824177e+01 -1.0345407088513525e+02 0 0 0
1384 40 2 0.0000000000000000e+00 -3.8426624978153498e+01 -3.6932574946674016e+01 -9.7426721977541177e+01 0 0 0
2216 64 1 0.0000000000000000e+00 -2.1750777275918658e+01 -4.3366699640368864e+01 -1.0355023316264793e+02 0 0 0
2215 64 2 0.0000000000000000e+00 -1.6732953942190761e+01 -3.6898358179724625e+01 -9.8513111969662560e+01 0 0 0
2541 73 2 0.0000000000000000e+00 -1.1411700622105634e+02 -2.3749920933347305e+01 -9.7302699892033900e+01 0 0 0
2542 73 2 0.0000000000000000e+00 -1.0968687060626490e+02 -2.8785526313182043e+01 -1.0511357614907028e+02 0 0 0
2527 73 2 0.0000000000000000e+00 -9.8928162910962527e+01 -3.1916462776688348e+01 -1.0079116020971937e+02 0 0 0
2933 84 2 0.0000000000000000e+00 -1.0162464884868355e+02 -1.9856473206104823e+01 -9.8933679351528482e+01 0 0 0
2526 73 2 0.0000000000000000e+00 -9.5014439432230091e+01 -2.9004167797005266e+01 -1.0904944403766696e+02 0 0 0
4754 136 4 0.0000000000000000e+00 -8.4170307901717692e+01 -3.0398607077346433e+01 -1.0164153723602220e+02 0 0 0
4755 136 4 0.0000000000000000e+00 -9.2186929692427881e+01 -2.5016582615137704e+01 -9.9560987371083556e+01 0 0 0
2083 60 1 0.0000000000000000e+00 -6.6112750946654657e+01 -2.9990599305935145e+01 -1.0365506025998845e+02 0 0 0
2082 60 2 0.0000000000000000e+00 -5.7137588767922352e+01 -2.4751348280825518e+01 -1.0220693758123547e+02 0 0 0
4193 120 4 0.0000000000000000e+00 -4.8262189209160546e+01 -3.1178721676278855e+01 -1.0299758190997832e+02 0 0 0
2081 60 2 0.0000000000000000e+00 -4.9201472550064828e+01 -1.9428494985747104e+01 -1.0437964381926903e+02 0 0 0
4195 120 4 0.0000000000000000e+00 -3.3974805826646673e+01 -2.6567584155782495e+01 -1.0590314160128101e+02 0 0 0
5548 159 3 0.0000000000000000e+00 -2.8085523718846709e+01 -2.7130355467135999e+01 -9.6175505236519669e+01 0 0 0
5547 159 4 0.0000000000000000e+00 -3.8411287574763733e+01 -2.6411748369740884e+01 -9.7078964325908714e+01 0 0 0
1382 40 2 0.0000000000000000e+00 -2.2594433834616932e+01 -2.9605995675391519e+01 -1.0579987267072833e+02 0 0 0
1381 40 2 0.0000000000000000e+00 -2.2842422317933067e+01 -1.9608893624254723e+01 -1.0341839663776830e+02 0 0 0
2214 64 2 0.0000000000000000e+00 -1.4971031063036754e+01 -2.7143545980841790e+01 -9.7106627588115813e+01 0 0 0
2932 84 2 0.0000000000000000e+00 -9.4971000250205577e+01 -1.5691275758518158e+01 -1.0510138041374447e+02 0 0 0
2931 84 2 0.0000000000000000e+00 -8.5002994232551387e+01 -1.4620001008924143e+01 -1.0587145725252620e+02 0 0 0
2930 84 1 0.0000000000000000e+00 -8.0845224433315508e+01 -6.3836117678302138e+00 -1.0789851677976517e+02 0 0 0
6261 179 4 0.0000000000000000e+00 -7.1594803307878763e+01 -1.4147021605637667e+01 -1.0699892503656955e+02 0 0 0
6262 179 3 0.0000000000000000e+00 -7.5967022140652332e+01 -1.0434267565784289e+01 -9.8701786857834705e+01 0 0 0
6515 187 4 0.0000000000000000e+00 -6.7854523561147701e+01 -1.7895381536586587e+01 -9.6410446029220594e+01 0 0 0
5544 159 4 0.0000000000000000e+00 -5.4564123696955150e+01 -1.0009972218826675e+01 -1.0019837732111417e+02 0 0 0
2080 60 2 0.0000000000000000e+00 -4.4699979232878263e+01 -1.1878891221018719e+01 -9.7748375436254236e+01 0 0 0
1630 47 2 0.0000000000000000e+00 -3.9084871712759096e+01 -1.0954801520211195e+01 -1.0805560714591104e+02 0 0 0
4196 120 4 0.0000000000000000e+00 -3.3297169455390225e+01 -1.7176758075039650e+01 -1.0224021551040632e+02 0 0 0
4197 120 3 0.0000000000000000e+00 -3.0053548904082671e+01 -8.7743953592962800e+00 -9.6666627277544336e+01 0 0 0
1370 40 2 0.0000000000000000e+00 -2.2289461525916984e+01 -8.9588354028469652e+00 -1.0545647154862060e+02 0 0 0
1371 40 2 0.0000000000000000e+00 -1.4546616306690007e+01 -1.4675678954935570e+01 -1.0490516326336900e+02 0 0 0
4758 136 4 0.0000000000000000e+00 -8.5378298300198168e+01 -3.6965508231911848e+00 -9.9167352313318290e+01 0 0 0
6490 186 4 0.0000000000000000e+00 -9.3650081679054182e+01 1.5842619950549621e+00 -1.0360473199463230e+02 0 0 0
4759 136 4 0.0000000000000000e+00 -8.0803091776133272e+01 4.2113948356429249e+00 -1.0310671028123447e+02 0 0 0
6263 179 4 0.0000000000000000e+00 -7.2546773279995961e+01 -1.4037215508749097e+00 -9.9289918880045107e+01 0 0 0
6264 179 4 0.0000000000000000e+00 -7.1239917118865748e+01 8.3960660184532490e+00 -1.0180763686040618e+02 0 0 0
5543 159 4 0.0000000000000000e+00 -5.2709063515339508e+01 -1.0230682461952254e+00 -1.0413660890527956e+02 0 0 0
1629 47 2 0.0000000000000000e+00 -4.3382335125659282e+01 -3.8044292032135938e+00 -1.0261897871094017e+02 0 0 0
1628 47 1 0.0000000000000000e+00 -4.3842779876783148e+01 6.5340458668291310e+00 -1.0361958343747391e+02 0 0 0
1369 40 1 0.0000000000000000e+00 -3.0157987635468864e+01 -3.0761149980193245e+00 -1.0632114888820786e+02 0 0 0
3020 87 2 0.0000000000000000e+00 -1.4639487185681636e+01 -5.9657034734265624e-01 -1.0757808721789714e+02 0 0 0
4199 120 4 0.0000000000000000e+00 -2.1895072818551437e+01 7.8299956010586378e+00 -9.8815700763608532e+01 0 0 0
4198 120 4 0.0000000000000000e+00 -2.2859133878433592e+01 -1.9845041376149604e+00 -9.6522864890245401e+01 0 0 0
2923 84 1 0.0000000000000000e+00 -1.0210503905157512e+02 2.0055728530689262e+01 -1.0560071362223481e+02 0 0 0
3729 107 4 0.0000000000000000e+00 -9.0978542945697200e+01 1.9745960859800235e+01 -1.0955666708897988e+02 0 0 0
3730 107 4 0.0000000000000000e+00 -8.9285193219705420e+01 1.4413513207949560e+01 -1.0135816974350553e+02 0 0 0
6265 179 4 0.0000000000000000e+00 -7.0388721313600612e+01 1.7021910551074846e+01 -1.0663741353503403e+02 0 0 0
6520 187 4 0.0000000000000000e+00 -3.1349964223509570e+01 9.4393408754287886e+00 -9.7049087456283289e+01 0 0 0
1627 47 2 0.0000000000000000e+00 -4.0641798727667044e+01 1.6074060003188642e+01 -1.0664240048808021e+02 0 0 0
6521 187 3 0.0000000000000000e+00 -2.8654796513163582e+01 1.8840240900011096e+01 -9.6883132071509593e+01 0 0 0
1366 40 2 0.0000000000000000e+00 -2.0803469328990190e+01 1.9952454061205966e+01 -1.0524189111323346e+02 0 0 0
2805 81 2 0.0000000000000000e+00 -8.8797469973536977e+01 -9.1113205099880972e+01 -8.6285708367139122e+01 0 0 0
2804 81 1 0.0000000000000000e+00 -7.9712006060341992e+01 -9.3034856130890176e+01 -8.3663310713687125e+01 0 0 0
5426 156 4 0.0000000000000000e+00 -3.9471309273331030e+01 -1.0013004858006502e+02 -8.5817726119537483e+01 0 0 0
5427 156 4 0.0000000000000000e+00 -3.5875589437532732e+01 -9.3483367103565698e+01 -9.1451674453714205e+01 0 0 0
2807 81 2 0.0000000000000000e+00 -9.7879665603018339e+01 -7.5830627941989434e+01 -9.2732912347951171e+01 0 0 0
2806 81 2 0.0000000000000000e+00 -9.5951062724871861e+01 -8.5249441737971765e+01 -9.0717442331600026e+01 0 0 0
5429 156 3 0.0000000000000000e+00 -4.8561207434350500e+01 -7.9662458357439249e+01 -9.5906789551082227e+01 0 0 0
2222 64 2 0.0000000000000000e+00 -4.4861242587222719e+01 -7.3819271696315923e+01 -8.6963632417012874e+01 0 0 0
5428 156 4 0.0000000000000000e+00 -4.0639139396367376e+01 -8.5968495854845102e+01 -9.5143798683487034e+01 0 0 0
2223 64 1 0.0000000000000000e+00 -3.5358337701324473e+01 -7.4181311478423183e+01 -8.9615925814811845e+01 0 0 0
4001 115 3 0.0000000000000000e+00 -3.1968240904301815e+01 -8.5419011791111160e+01 -8.7049167801363808e+01 0 0 0
4002 115 4 0.0000000000000000e+00 -2.4029371732986217e+01 -8.6032547187974984e+01 -9.1410966641252884e+01 0 0 0
2808 81 2 0.0000000000000000e+00 -9.3200895121017595e+01 -6.8839713463260352e+01 -8.7385851002691680e+01 0 0 0
2088 60 2 0.0000000000000000e+00 -6.6529279826897678e+01 -6.4400105045218282e+01 -9.3007331659849996e+01 0 0 0
2221 64 2 0.0000000000000000e+00 -4.9271639252276323e+01 -7.0243883229363348e+01 -9.5058785025438141e+01 0 0 0
2809 81 2 0.0000000000000000e+00 -8.9266404952315114e+01 -5.9750930747932529e+01 -8.8791191683923856e+01 0 0 0
2810 81 2 0.0000000000000000e+00 -9.0172603999717992e+01 -5.0711584857405711e+01 -8.6303716114767383e+01 0 0 0
2087 60 2 0.0000000000000000e+00 -7.4722692200842218e+01 -5.8611271182827544e+01 -9.2331745762181427e+01 0 0 0
2086 60 2 0.0000000000000000e+00 -7.6249412290098419e+01 -4.9146771235392599e+01 -9.5165447994999468e+01 0 0 0
5882 169 4 0.0000000000000000e+00 -6.2758225108186650e+01 -5.0319150963903283e+01 -8.6278058751346549e+01 0 0 0
5881 169 4 0.0000000000000000e+00 -5.8060331794860062e+01 -5.8886313059653290e+01 -8.6565013541440493e+01 0 0 0
2630 76 2 0.0000000000000000e+00 -4.7563281702750409e+01 -4.9944080870936375e+01 -9.5852800046243487e+01 0 0 0
2631 76 2 0.0000000000000000e+00 -3.7543042539552687e+01 -4.8538721766071070e+01 -9.5815667964974111e+01 0 0 0
4840 139 4 0.0000000000000000e+00 -2.9248191750179590e+01 -4.7641732725144237e+01 -8.6336240146411200e+01 0 0 0
4842 139 4 0.0000000000000000e+00 -1.7746469380784479e+01 -4.9833850630478167e+01 -9.5778352626130570e+01 0 0 0
2634 76 2 0.0000000000000000e+00 -1.7410545334607715e+01 -5.6893929187797056e+01 -8.6890702805884914e+01 0 0 0
2633 76 2 0.0000000000000000e+00 -2.2964914320779766e+01 -5.9188414634528058e+01 -9.5234113181996321e+01 0 0 0
6249 179 4 0.0000000000000000e+00 -1.1618867464221572e+02 -4.2898317340576710e+01 -9.1476912170326671e+01 0 0 0
6248 179 3 0.0000000000000000e+00 -1.1624847465375392e+02 -3.5236664511638196e+01 -8.4772885564544623e+01 0 0 0
5883 169 4 0.0000000000000000e+00 -7.1547166360672335e+01 -4.5809542484168929e+01 -8.6930195892603663e+01 0 0 0
6513 187 4 0.0000000000000000e+00 -7.1401042074647506e+01 -3.3653333198110616e+01 -8.7150181652600622e+01 0 0 0
4191 120 4 0.0000000000000000e+00 -6.2896382561097404e+01 -3.7669202292064021e+01 -9.2380427903547641e+01 0 0 0
4190 120 3 0.0000000000000000e+00 -5.9535641401696019e+01 -4.0474717018058406e+01 -8.3223885484652712e+01 0 0 0
1385 40 2 0.0000000000000000e+00 -4.7903123953567928e+01 -3.9608520285013711e+01 -9.4940446283048715e+01 0 0 0
1386 40 2 0.0000000000000000e+00 -5.3333557474230133e+01 -3.2526949869768210e+01 -8.9786407973055290e+01 0 0 0
5550 159 4 0.0000000000000000e+00 -3.7556319763932137e+01 -3.9592776127931089e+01 -8.6018941832637566e+01 0 0 0
5549 159 4 0.0000000000000000e+00 -3.0422611015939484e+01 -3.3656746437999232e+01 -8.9787189044778358e+01 0 0 0
4841 139 3 0.0000000000000000e+00 -2.4006124116944225e+01 -4.2323591368111856e+01 -9.3029981390264041e+01 0 0 0
1378 40 2 0.0000000000000000e+00 -1.5450218480703919e+01 -3.2792329895735293e+01 -8.4712386145768605e+01 0 0 0
2539 73 2 0.0000000000000000e+00 -1.2197251505445978e+02 -2.2068082452247150e+01 -8.2983690347574367e+01 0 0 0
6247 179 4 0.0000000000000000e+00 -1.0869284794930634e+02 -2.8737121491982776e+01 -8.2742962541471073e+01 0 0 0
2935 84 2 0.0000000000000000e+00 -1.1284908827685653e+02 -1.9543049392124235e+01 -8.2914946124330811e+01 0 0 0
2528 73 2 0.0000000000000000e+00 -9.8847195541161526e+01 -2.8661464151173728e+01 -9.1488914581925869e+01 0 0 0
2934 84 2 0.0000000000000000e+00 -1.0655486110049817e+02 -2.0659608875580098e+01 -9.0428325666314905e+01 0 0 0
2529 73 2 0.0000000000000000e+00 -9.0124372179164027e+01 -3.1230446177166023e+01 -8.6990010132426619e+01 0 0 0
929 27 2 0.0000000000000000e+00 -9.2555725896987667e+01 -2.1836104248188128e+01 -8.2964204220818260e+01 0 0 0
6514 187 3 0.0000000000000000e+00 -6.6860026839533958e+01 -2.7042970192474918e+01 -9.3194806253219298e+01 0 0 0
1387 40 2 0.0000000000000000e+00 -5.6851247397992054e+01 -2.6696646138077881e+01 -8.2675755592524396e+01 0 0 0
5546 159 4 0.0000000000000000e+00 -4.6845459920199694e+01 -2.4495710289652628e+01 -9.2602642252083371e+01 0 0 0
229 7 2 0.0000000000000000e+00 -4.4811638122260732e+01 -3.1160228992893696e+01 -8.3902236598608496e+01 0 0 0
230 7 2 0.0000000000000000e+00 -3.9886176493947872e+01 -2.2694690005993760e+01 -8.2791617616108127e+01 0 0 0
1379 40 2 0.0000000000000000e+00 -2.0505575529311852e+01 -2.4744893911487825e+01 -8.8496633199779112e+01 0 0 0
2540 73 2 0.0000000000000000e+00 -1.1849933580051793e+02 -1.7026236546124188e+01 -9.1401221799228722e+01 0 0 0
6488 186 4 0.0000000000000000e+00 -1.0530774728083895e+02 -6.1449876147422726e+00 -9.4875091920763808e+01 0 0 0
928 27 1 0.0000000000000000e+00 -9.4883555946814511e+01 -1.2690616346557045e+01 -8.5597345442508313e+01 0 0 0
4756 136 4 0.0000000000000000e+00 -9.1729670628066401e+01 -1.5890427165346949e+01 -9.5077241633690775e+01 0 0 0
4757 136 3 0.0000000000000000e+00 -8.5901421811131343e+01 -9.0471523875883300e+00 -9.1034024960828830e+01 0 0 0
3734 107 4 0.0000000000000000e+00 -7.0063647108587986e+01 -1.0598718458276382e+01 -8.3184584634453955e+01 0 0 0
6516 187 4 0.0000000000000000e+00 -6.5299340378477524e+01 -9.2095564426017678e+00 -9.3543841829017808e+01 0 0 0
5545 159 4 0.0000000000000000e+00 -5.2953313008210323e+01 -1.6904307525826624e+01 -9.3883700897476785e+01 0 0 0
2079 60 2 0.0000000000000000e+00 -4.0204586843947936e+01 -6.3707161688870180e+00 -9.1349392643599984e+01 0 0 0
1380 40 2 0.0000000000000000e+00 -2.4572410938025456e+01 -1.7238767939232112e+01 -9.3856010171640861e+01 0 0 0
5767 165 4 0.0000000000000000e+00 -2.5313936256752328e+01 -1.2998694921106285e+01 -8.5391909074502877e+01 0 0 0