LAMMPS data file via write_data, version 5 Jun 2019, timestep = 400000000

7000 atoms
4 atom types
7291 bonds
3 bond types
6600 angles
2 angle types

-5.0000000000000000e+02 5.0000000000000000e+02 xlo xhi
-5.0000000000000000e+02 5.0000000000000000e+02 ylo yhi
-5.0000000000000000e+02 5.0000000000000000e+02 zlo zhi

Masses

1 1000
2 1000
3 1000
4 1000

Pair Coeffs # lj/cut

1 0.296 10
2 0.296 10
3 0.296 10
4 0.296 10

Angle Coeffs # cosine

1 2
2 2

Atoms # full

2551 73 2 0.0000000000000000e+00 -4.9222501882038948e+01 -4.0388148114993022e+01 -1.4192424389990069e+02 0 0 0
6490 186 4 0.0000000000000000e+00 -1.2205818749662650e+02 -2.7339162381332585e+01 -1.4136780268067733e+02 0 0 0
582 17 2 0.0000000000000000e+00 -4.7221742395716817e+01 2.4829129695817311e+01 -1.4089479914999174e+02 0 0 0
584 17 2 0.0000000000000000e+00 -3.2380022737948700e+01 2.4012847173398878e+01 -1.4941722435047808e+02 0 0 0
583 17 2 0.0000000000000000e+00 -4.1351918588291277e+01 1.9690089688458691e+01 -1.4804803343775313e+02 0 0 0
6231 179 4 0.0000000000000000e+00 -1.2411697732987284e+02 -7.0837752058456672e+01 -1.2671346515798290e+02 0 0 0
2521 73 2 0.0000000000000000e+00 -1.1636315430324898e+02 -6.0650772520968964e+01 -1.2912043785207672e+02 0 0 0
5881 169 4 0.0000000000000000e+00 -8.6098686379437112e+01 -6.8744388975699991e+01 -1.2740331478443102e+02 0 0 0
6493 186 3 0.0000000000000000e+00 -1.0509255776359107e+02 -4.2648913426350056e+01 -1.2697619437461195e+02 0 0 0
6495 186 4 0.0000000000000000e+00 -8.6850839359907624e+01 -4.4445159904853220e+01 -1.3027491892104538e+02 0 0 0
6496 186 4 0.0000000000000000e+00 -7.7571047624871682e+01 -4.8053173444590840e+01 -1.3305277848859842e+02 0 0 0
6497 186 4 0.0000000000000000e+00 -6.8454643622727545e+01 -5.2032056808616446e+01 -1.3451707815400729e+02 0 0 0
6498 186 4 0.0000000000000000e+00 -5.8589192229120840e+01 -5.3345757828973575e+01 -1.3536643811972442e+02 0 0 0
2549 73 2 0.0000000000000000e+00 -6.2145555877927158e+01 -4.4231465651132062e+01 -1.2731376135959329e+02 0 0 0
6499 186 4 0.0000000000000000e+00 -4.9111454529989444e+01 -5.5554484813725765e+01 -1.3192829513785239e+02 0 0 0
2550 73 2 0.0000000000000000e+00 -5.5515589551848890e+01 -4.2727753196062217e+01 -1.3486318210803262e+02 0 0 0
2552 73 1 0.0000000000000000e+00 -4.0802111957323469e+01 -4.3134681961321284e+01 -1.3741443933909633e+02 0 0 0
6500 186 3 0.0000000000000000e+00 -4.1944509883165352e+01 -4.9556436048651889e+01 -1.2790755879490239e+02 0 0 0
2553 73 2 0.0000000000000000e+00 -3.4374506347935338e+01 -4.2500048673963768e+01 -1.2978242887994207e+02 0 0 0
6491 186 4 0.0000000000000000e+00 -1.1875641736817106e+02 -3.6639421948656441e+01 -1.3934583180084249e+02 0 0 0
6492 186 4 0.0000000000000000e+00 -1.1190582487123503e+02 -4.0744432553834081e+01 -1.3323767125027933e+02 0 0 0
6257 179 4 0.0000000000000000e+00 -9.5698387993763944e+01 -2.9206785964320172e+01 -1.2776974153831077e+02 0 0 0
4743 136 3 0.0000000000000000e+00 -4.6352831381433845e+01 -3.5934777027762344e+01 -1.2960466964623203e+02 0 0 0
4742 136 4 0.0000000000000000e+00 -3.9042537005227231e+01 -3.0976895005504318e+01 -1.3378440676030536e+02 0 0 0
2929 84 2 0.0000000000000000e+00 -1.1055232062746032e+02 -2.5006610442277385e+01 -1.2866996335578028e+02 0 0 0
6489 186 4 0.0000000000000000e+00 -1.2264752769876945e+02 -1.7617904335323736e+01 -1.3739542276356357e+02 0 0 0
2930 84 1 0.0000000000000000e+00 -1.2093032028998850e+02 -2.4658340430321381e+01 -1.2673102463268262e+02 0 0 0
6259 179 4 0.0000000000000000e+00 -1.0419010583151710e+02 -1.8351398499052930e+01 -1.3488121967065325e+02 0 0 0
6258 179 4 0.0000000000000000e+00 -9.6668373342696000e+01 -2.4682745282691755e+01 -1.3709156105306545e+02 0 0 0
4741 136 4 0.0000000000000000e+00 -3.4516531633955061e+01 -2.3255252244792036e+01 -1.3814388073056546e+02 0 0 0
6488 186 4 0.0000000000000000e+00 -1.2431426028017324e+02 -7.6569252577631417e+00 -1.3564115529565055e+02 0 0 0
6260 179 4 0.0000000000000000e+00 -1.1236165111255801e+02 -1.3943245147926145e+01 -1.3170364998614559e+02 0 0 0
6487 186 4 0.0000000000000000e+00 -1.1768039619909658e+02 -4.2233804343605232e+00 -1.2817749242532233e+02 0 0 0
2240 64 2 0.0000000000000000e+00 -6.3778404777943194e+01 -1.1495153831362124e+01 -1.2855763987060251e+02 0 0 0
735 21 2 0.0000000000000000e+00 -5.7430029200503014e+01 -5.3758123677958976e+00 -1.3700915733107990e+02 0 0 0
5915 169 4 0.0000000000000000e+00 -7.7671496626641698e+01 8.7444425378236605e+00 -1.3874721788701510e+02 0 0 0
5914 169 4 0.0000000000000000e+00 -7.5383555353189664e+01 3.3356730688348093e+00 -1.3102626642044950e+02 0 0 0
734 21 2 0.0000000000000000e+00 -6.3065152595016222e+01 1.0557460229877322e+00 -1.3133243104417920e+02 0 0 0
5536 159 4 0.0000000000000000e+00 -3.9039900589171765e+01 1.2953830209009196e+01 -1.2869059548845411e+02 0 0 0
5535 159 4 0.0000000000000000e+00 -3.5126896426360744e+01 2.0845668456570507e+01 -1.3459199909627176e+02 0 0 0
6232 179 4 0.0000000000000000e+00 -1.2136619719124920e+02 -7.0428550440397032e+01 -1.1725605105675925e+02 0 0 0
2232 64 2 0.0000000000000000e+00 -3.0587882957532056e+01 -7.3244142705737673e+01 -1.1626535443099563e+02 0 0 0
2522 73 2 0.0000000000000000e+00 -1.0845733905732590e+02 -5.6126474456235812e+01 -1.2581516912685954e+02 0 0 0
5882 169 4 0.0000000000000000e+00 -8.6884843783141790e+01 -6.1428175866559890e+01 -1.2125212355388945e+02 0 0 0
5883 169 4 0.0000000000000000e+00 -8.5748061035960546e+01 -5.6148668969564000e+01 -1.1259127208762298e+02 0 0 0
4747 136 4 0.0000000000000000e+00 -6.8861283467718536e+01 -5.8631857178009909e+01 -1.1676089938403803e+02 0 0 0
4746 136 4 0.0000000000000000e+00 -6.4307236809697457e+01 -5.8407532135477460e+01 -1.2560553999567910e+02 0 0 0
2234 64 2 0.0000000000000000e+00 -4.3033770941071374e+01 -5.7721632013903253e+01 -1.1330267112174023e+02 0 0 0
2233 64 2 0.0000000000000000e+00 -3.7275218342501063e+01 -6.6263464794171270e+01 -1.1399782577978942e+02 0 0 0
4731 136 4 0.0000000000000000e+00 -3.3327436206216781e+01 -5.9363530259216041e+01 -1.2317041326904258e+02 0 0 0
4730 136 4 0.0000000000000000e+00 -3.2987591891113105e+01 -5.6312011644693541e+01 -1.1368573227604655e+02 0 0 0
2523 73 2 0.0000000000000000e+00 -1.0789059387545795e+02 -4.8466958602212792e+01 -1.1953167714625408e+02 0 0 0
6494 186 4 0.0000000000000000e+00 -9.5362958232818869e+01 -4.4071125335332887e+01 -1.2527566064698229e+02 0 0 0
2812 81 2 0.0000000000000000e+00 -9.2272337099930397e+01 -4.8088946042960906e+01 -1.1310159084914889e+02 0 0 0
2626 76 2 0.0000000000000000e+00 -8.0913667631536200e+01 -5.3009532220797205e+01 -1.2437555542828227e+02 0 0 0
2627 76 2 0.0000000000000000e+00 -7.7929824933727147e+01 -4.9415578370266914e+01 -1.1589026399481116e+02 0 0 0
2548 73 2 0.0000000000000000e+00 -7.1182385385119318e+01 -4.3850462875219783e+01 -1.2328028576932248e+02 0 0 0
4745 136 4 0.0000000000000000e+00 -5.6750045774090125e+01 -5.1673253594504452e+01 -1.2393697382218245e+02 0 0 0
4744 136 4 0.0000000000000000e+00 -5.0327686839005679e+01 -4.3267273826302940e+01 -1.2378609783629966e+02 0 0 0
6501 186 4 0.0000000000000000e+00 -3.7986540369115822e+01 -4.7441278346555855e+01 -1.1953656177646066e+02 0 0 0
6265 179 4 0.0000000000000000e+00 -1.3307363353735494e+02 -4.2291019078756158e+01 -1.1683956424387752e+02 0 0 0
6264 179 4 0.0000000000000000e+00 -1.3426714744116376e+02 -3.3268343025532602e+01 -1.1943913044247302e+02 0 0 0
2524 73 1 0.0000000000000000e+00 -1.0860311052717246e+02 -3.9010983612750188e+01 -1.1657008770186883e+02 0 0 0
2525 73 2 0.0000000000000000e+00 -1.0679906579372843e+02 -2.9562798470135313e+01 -1.1448647466427009e+02 0 0 0
2546 73 2 0.0000000000000000e+00 -8.7015739477272916e+01 -3.7447540463658136e+01 -1.1334020739400546e+02 0 0 0
2547 73 2 0.0000000000000000e+00 -7.8239556706969452e+01 -3.8667402734745515e+01 -1.1831323191926749e+02 0 0 0
2237 64 1 0.0000000000000000e+00 -4.8456428112362183e+01 -3.2183492242943771e+01 -1.1908603131298815e+02 0 0 0
2236 64 2 0.0000000000000000e+00 -4.7890986487192528e+01 -4.1324203583329989e+01 -1.1461287403501237e+02 0 0 0
2554 73 2 0.0000000000000000e+00 -3.0063928846367819e+01 -3.8760782907110425e+01 -1.2178715693612556e+02 0 0 0
2555 73 2 0.0000000000000000e+00 -2.9402778967867846e+01 -3.1917543539240121e+01 -1.1462096836581469e+02 0 0 0
6263 179 4 0.0000000000000000e+00 -1.3596725740558713e+02 -2.3704867484315429e+01 -1.2286102342728766e+02 0 0 0
6262 179 3 0.0000000000000000e+00 -1.2796408564638007e+02 -1.7680085747585245e+01 -1.2202911267977426e+02 0 0 0
1718 50 2 0.0000000000000000e+00 -1.2321797993835264e+02 -1.6022181645258172e+01 -1.1293174585131544e+02 0 0 0
2931 84 2 0.0000000000000000e+00 -1.1759044601405000e+02 -2.1559998308893260e+01 -1.1801748780155705e+02 0 0 0
2928 84 2 0.0000000000000000e+00 -1.0617034011724306e+02 -1.9559128154791892e+01 -1.2159572619976606e+02 0 0 0
6256 179 4 0.0000000000000000e+00 -9.5181493351830284e+01 -2.6399589938681963e+01 -1.1799498207821874e+02 0 0 0
2239 64 2 0.0000000000000000e+00 -6.1804244215138766e+01 -2.0836499053565756e+01 -1.2574644550634147e+02 0 0 0
2238 64 2 0.0000000000000000e+00 -5.4308245337623937e+01 -2.5332616481048650e+01 -1.2116453828092706e+02 0 0 0
5909 169 4 0.0000000000000000e+00 -4.8798009338085997e+01 -2.0950349180348674e+01 -1.1326261054958857e+02 0 0 0
5540 159 4 0.0000000000000000e+00 -3.5753308230900942e+01 -1.9075187168987288e+01 -1.1629996808419548e+02 0 0 0
6261 179 4 0.0000000000000000e+00 -1.1881483881786347e+02 -1.3456743109453472e+01 -1.2379355266278266e+02 0 0 0
6486 186 3 0.0000000000000000e+00 -1.1636313597903123e+02 -3.3012649519599546e+00 -1.1814077005514403e+02 0 0 0
2927 84 2 0.0000000000000000e+00 -1.0472587075533269e+02 -9.8936378886616065e+00 -1.1898451731856194e+02 0 0 0
4755 136 4 0.0000000000000000e+00 -8.5308556265208310e+01 -5.0901566877366529e+00 -1.1365984712958129e+02 0 0 0
4754 136 4 0.0000000000000000e+00 -8.3202167549640748e+01 -1.4829797999811269e+01 -1.1595361699789269e+02 0 0 0
5913 169 4 0.0000000000000000e+00 -7.0861767149404514e+01 -3.3633094319509400e+00 -1.2518469079465808e+02 0 0 0
5912 169 3 0.0000000000000000e+00 -7.2420557525072269e+01 -9.7704516693566106e+00 -1.1786838340527994e+02 0 0 0
5911 169 4 0.0000000000000000e+00 -6.5459323223453509e+01 -1.5244184078938265e+01 -1.1267129428673374e+02 0 0 0
5908 169 4 0.0000000000000000e+00 -4.6568088601231992e+01 -1.4252612921750847e+01 -1.1997640920848892e+02 0 0 0
5907 169 4 0.0000000000000000e+00 -4.4483989845635918e+01 -4.3928480434351158e+00 -1.2129256396556247e+02 0 0 0
5538 159 4 0.0000000000000000e+00 -3.1466513418118350e+01 -4.2385780790928775e+00 -1.2059662397932954e+02 0 0 0
5539 159 4 0.0000000000000000e+00 -3.0236324081084259e+01 -1.4022805255952704e+01 -1.2259701749518784e+02 0 0 0
1792 52 2 0.0000000000000000e+00 -7.2726512899003438e+01 8.7646974480169160e+00 -1.1799518010740842e+02 0 0 0
733 21 2 0.0000000000000000e+00 -6.2550381955989096e+01 9.5993268685457736e+00 -1.2581426560240506e+02 0 0 0
1793 52 2 0.0000000000000000e+00 -6.6140868854225019e+01 1.3476652948057628e+00 -1.1648516169165673e+02 0 0 0
5906 169 4 0.0000000000000000e+00 -4.3774074661886139e+01 5.6775971201240232e+00 -1.2038842991531675e+02 0 0 0
5537 159 4 0.0000000000000000e+00 -3.4486533310115647e+01 5.4442880068357020e+00 -1.2297913610942601e+02 0 0 0
1925 55 2 0.0000000000000000e+00 -1.1129864740852550e+02 1.3820843269880440e+01 -1.1347860355303780e+02 0 0 0
5418 155 4 0.0000000000000000e+00 -9.7274737127835664e+01 2.3799757262555847e+01 -1.1544870827682415e+02 0 0 0
5419 155 4 0.0000000000000000e+00 -8.9308910959261453e+01 1.7546819485882917e+01 -1.1701667436209721e+02 0 0 0
1791 52 2 0.0000000000000000e+00 -7.0436268223342324e+01 1.8583472288869835e+01 -1.2098569256175396e+02 0 0 0
732 21 1 0.0000000000000000e+00 -6.0797314392854943e+01 1.2949653396594885e+01 -1.1650245605991202e+02 0 0 0
731 21 2 0.0000000000000000e+00 -6.0863096298834002e+01 2.2759830493574825e+01 -1.1286772502250109e+02 0 0 0
5905 169 3 0.0000000000000000e+00 -4.9608128180038790e+01 1.3881282359099769e+01 -1.1981571000077878e+02 0 0 0
5904 169 4 0.0000000000000000e+00 -4.9705960431938024e+01 2.2284025799127797e+01 -1.1503340700322927e+02 0 0 0
1802 52 2 0.0000000000000000e+00 -3.5859571075721540e+01 2.4685059973034424e+01 -1.2199403551490605e+02 0 0 0
2802 81 2 0.0000000000000000e+00 -1.4193003283570812e+02 -7.4117619591255519e+01 -9.8860950890795550e+01 0 0 0
6233 179 4 0.0000000000000000e+00 -1.2716083472328908e+02 -7.1259610285232256e+01 -1.0902947822118020e+02 0 0 0
6234 179 3 0.0000000000000000e+00 -1.3129445735370444e+02 -7.4081929886851398e+01 -1.0113247499143219e+02 0 0 0
2633 76 2 0.0000000000000000e+00 -3.9038905129105864e+01 -6.9970418118797753e+01 -9.8403595344943980e+01 0 0 0
2803 81 2 0.0000000000000000e+00 -1.3761919994387804e+02 -6.5413856597035348e+01 -1.0111281384564661e+02 0 0 0
2804 81 1 0.0000000000000000e+00 -1.2745968221753078e+02 -6.4133105424311495e+01 -1.0148588168497552e+02 0 0 0
2805 81 2 0.0000000000000000e+00 -1.1928883330955682e+02 -5.8353447249093513e+01 -9.8877467117638076e+01 0 0 0
2814 81 2 0.0000000000000000e+00 -9.6823083794924941e+01 -6.0521089525391851e+01 -9.8210073738998886e+01 0 0 0
4748 136 4 0.0000000000000000e+00 -7.2026990582714703e+01 -5.6770767094376680e+01 -1.0721464375094928e+02 0 0 0
2631 76 2 0.0000000000000000e+00 -5.7241970413519795e+01 -6.1432142170807879e+01 -1.0260500414688397e+02 0 0 0
2630 76 2 0.0000000000000000e+00 -6.0586943628810076e+01 -5.6392773254846709e+01 -1.1020737052082788e+02 0 0 0
2632 76 2 0.0000000000000000e+00 -4.8586582836311678e+01 -6.7430000540647413e+01 -1.0119590982182082e+02 0 0 0
4729 136 3 0.0000000000000000e+00 -3.5807335038876388e+01 -5.8060889784399166e+01 -1.0388437629773912e+02 0 0 0
2813 81 2 0.0000000000000000e+00 -9.6585250109259576e+01 -5.4356112202369459e+01 -1.0609252839450123e+02 0 0 0
2811 81 1 0.0000000000000000e+00 -9.0194002550261303e+01 -4.5471519576178196e+01 -1.0385556623635783e+02 0 0 0
5884 169 3 0.0000000000000000e+00 -8.1208021532982372e+01 -5.2497408908314561e+01 -1.0479689764926013e+02 0 0 0
4749 136 4 0.0000000000000000e+00 -7.1285246817444289e+01 -5.0686164753945022e+01 -9.9597311079448005e+01 0 0 0
2628 76 2 0.0000000000000000e+00 -7.3944662317466538e+01 -4.4438090395406256e+01 -1.0818679754006712e+02 0 0 0
2629 76 1 0.0000000000000000e+00 -6.4375865466097864e+01 -4.7748376016340487e+01 -1.0848033532197101e+02 0 0 0
4750 136 3 0.0000000000000000e+00 -6.5579447950627625e+01 -4.2705475108038634e+01 -9.8665463412124211e+01 0 0 0
2235 64 2 0.0000000000000000e+00 -4.9645943978372536e+01 -5.0187444450497090e+01 -1.1142264534483759e+02 0 0 0
1632 47 2 0.0000000000000000e+00 -5.4200497847486126e+01 -4.8954908196117593e+01 -1.0233608038681109e+02 0 0 0
4728 136 4 0.0000000000000000e+00 -4.0318792568138448e+01 -4.9516469282170412e+01 -1.0489150691912903e+02 0 0 0
6502 186 4 0.0000000000000000e+00 -3.1765773573641599e+01 -4.6150010863554130e+01 -1.1112184857790672e+02 0 0 0
6503 186 4 0.0000000000000000e+00 -2.9969357835364836e+01 -4.2767477893290931e+01 -1.0149087724274251e+02 0 0 0
2544 73 2 0.0000000000000000e+00 -1.0164030266838073e+02 -3.3339710568102788e+01 -1.0414335767398521e+02 0 0 0
2545 73 1 0.0000000000000000e+00 -9.6594494888790166e+01 -3.7721639139778425e+01 -1.1119291449478787e+02 0 0 0
4751 136 4 0.0000000000000000e+00 -6.5086668510752872e+01 -3.3048165928213862e+01 -1.0182465054403858e+02 0 0 0
1631 47 2 0.0000000000000000e+00 -5.4932354787188849e+01 -3.9808532928485235e+01 -1.0656993841438194e+02 0 0 0
4727 136 4 0.0000000000000000e+00 -4.4665691389697386e+01 -4.1503695721921304e+01 -1.0220093305930659e+02 0 0 0
1630 47 2 0.0000000000000000e+00 -4.9557205512275296e+01 -3.2008943467388484e+01 -1.0895329347079358e+02 0 0 0
4726 136 4 0.0000000000000000e+00 -4.7000966629831460e+01 -3.3046621266058025e+01 -9.8890085081741077e+01 0 0 0
1629 47 2 0.0000000000000000e+00 -3.9498491489840717e+01 -3.1825461202254861e+01 -1.0859752068944678e+02 0 0 0
2932 84 2 0.0000000000000000e+00 -1.1718735660188868e+02 -2.3729887637789730e+01 -1.0787892594860547e+02 0 0 0
930 27 2 0.0000000000000000e+00 -1.1073210992784617e+02 -2.7606210234081246e+01 -9.9030998649307222e+01 0 0 0
2933 84 2 0.0000000000000000e+00 -1.1753999438542087e+02 -1.8516789153784057e+01 -9.8924047124171850e+01 0 0 0
2526 73 2 0.0000000000000000e+00 -1.0561843343777484e+02 -2.1631278648355661e+01 -1.0829250268880465e+02 0 0 0
6254 179 4 0.0000000000000000e+00 -9.3653165174841249e+01 -2.8867122204279219e+01 -1.0043868884681719e+02 0 0 0
6255 179 3 0.0000000000000000e+00 -9.0104017369769196e+01 -2.8164011914320636e+01 -1.0955105008307933e+02 0 0 0
2528 73 2 0.0000000000000000e+00 -9.3277997024472640e+01 -1.8457588000329157e+01 -1.0155224777196236e+02 0 0 0
4753 136 4 0.0000000000000000e+00 -8.0019089440355344e+01 -2.2168642462593688e+01 -1.0882732365276573e+02 0 0 0
4752 136 4 0.0000000000000000e+00 -7.2908815174559862e+01 -2.6739056489265373e+01 -1.0385466504182595e+02 0 0 0
5910 169 4 0.0000000000000000e+00 -5.8958286978818258e+01 -2.3083913753506021e+01 -1.1203316609564214e+02 0 0 0
6521 187 3 0.0000000000000000e+00 -5.8060347626950218e+01 -1.6003292323341874e+01 -1.0265999602107348e+02 0 0 0
6520 187 4 0.0000000000000000e+00 -5.5870282315691092e+01 -2.4163861132522147e+01 -9.8615559387001625e+01 0 0 0
1628 47 1 0.0000000000000000e+00 -3.1582858635998804e+01 -2.7685540952269804e+01 -1.0385949522266588e+02 0 0 0
5541 159 3 0.0000000000000000e+00 -3.9417675811132284e+01 -2.1056127004022589e+01 -1.0680136544480455e+02 0 0 0
1717 50 2 0.0000000000000000e+00 -1.2565890004394448e+02 -6.3411173498049456e+00 -1.1109792625809705e+02 0 0 0
1719 50 1 0.0000000000000000e+00 -1.1416976888974654e+02 -1.1730248043962462e+01 -1.1068314287764773e+02 0 0 0
1720 50 2 0.0000000000000000e+00 -1.1534152075425907e+02 -9.2038427346294238e+00 -1.0141552154550256e+02 0 0 0
2926 84 2 0.0000000000000000e+00 -1.0087195039162511e+02 -4.7824016805684391e+00 -1.1123455894784593e+02 0 0 0
2527 73 2 0.0000000000000000e+00 -9.8235291384499092e+01 -1.4903045569371187e+01 -1.0935100571095545e+02 0 0 0
4756 136 4 0.0000000000000000e+00 -8.9561461084337495e+01 -4.3323841563906695e+00 -1.0437850902488880e+02 0 0 0
2069 60 1 0.0000000000000000e+00 -7.5784284035717562e+01 -5.4134005993915695e+00 -1.0870929881376317e+02 0 0 0
3731 107 4 0.0000000000000000e+00 -7.5199597500901675e+01 -1.4109203625257479e+01 -1.0421978835634297e+02 0 0 0
3730 107 4 0.0000000000000000e+00 -8.1093780171774526e+01 -7.7109392516947457e+00 -9.9895013691792528e+01 0 0 0
2070 60 2 0.0000000000000000e+00 -7.1128903635523244e+01 -5.2632962465946065e+00 -1.0001495008538414e+02 0 0 0
1794 52 2 0.0000000000000000e+00 -6.3474838957781330e+01 -4.8620787428180039e+00 -1.0921889535998129e+02 0 0 0
1795 52 2 0.0000000000000000e+00 -5.6807489631128128e+01 -3.0971400153212580e+00 -1.0210689071541859e+02 0 0 0
6522 187 4 0.0000000000000000e+00 -4.8508670231053458e+01 -1.2927068539902610e+01 -1.0501586783962745e+02 0 0 0
6523 187 4 0.0000000000000000e+00 -4.2649257832736303e+01 -8.0037156359680406e+00 -1.1040805003818090e+02 0 0 0
3022 87 2 0.0000000000000000e+00 -2.9311707562216391e+01 -5.7220089347526812e+00 -1.0872775776227709e+02 0 0 0
6524 187 4 0.0000000000000000e+00 -3.8724204454115991e+01 -2.5730170712356992e+00 -1.0327502584821991e+02 0 0 0
1716 50 2 0.0000000000000000e+00 -1.3011340338044829e+02 1.2149234174027594e+00 -1.0644187776753888e+02 0 0 0
6483 186 4 0.0000000000000000e+00 -1.2917106325921566e+02 8.4251892866860878e+00 -9.9697124050708155e+01 0 0 0
6485 186 4 0.0000000000000000e+00 -1.1408175263139212e+02 -1.0616640208719867e+00 -1.0871459755816943e+02 0 0 0
6484 186 4 0.0000000000000000e+00 -1.2021776411554316e+02 4.3109338246279814e+00 -1.0261643157134894e+02 0 0 0
2925 84 2 0.0000000000000000e+00 -1.0417979778955166e+02 -1.1789514740082148e+00 -1.0305470884361557e+02 0 0 0
2924 84 2 0.0000000000000000e+00 -9.8649959937650934e+01 6.5367586722353437e+00 -9.9969063842490570e+01 0 0 0
3727 107 4 0.0000000000000000e+00 -9.1436927270308331e+01 9.6912699870569146e+00 -1.0962335946721487e+02 0 0 0
3728 107 3 0.0000000000000000e+00 -8.9249339844594346e+01 8.3417922144437302e+00 -1.0009882625871326e+02 0 0 0
2068 60 2 0.0000000000000000e+00 -8.0759398858675524e+01 2.9815609863638519e+00 -1.0576354665939489e+02 0 0 0
4761 137 4 0.0000000000000000e+00 -6.9228174770604639e+01 9.9153406000021675e+00 -1.0000886012833519e+02 0 0 0
6340 182 4 0.0000000000000000e+00 -5.7987453843706284e+01 1.0521088963052843e+01 -9.8849506905196975e+01 0 0 0
1796 52 1 0.0000000000000000e+00 -4.8910039795303490e+01 3.4727930297054121e+00 -1.0403556502298079e+02 0 0 0
1797 52 2 0.0000000000000000e+00 -4.0587282830272486e+01 9.4816915189536779e+00 -1.0265310240776149e+02 0 0 0
1798 52 2 0.0000000000000000e+00 -3.0975131423140837e+01 9.0868848848926529e+00 -1.0330373592544578e+02 0 0 0
2198 63 2 0.0000000000000000e+00 -1.5361495342548406e+02 1.2265674693610286e+01 -1.0123169325301143e+02 0 0 0
1924 55 2 0.0000000000000000e+00 -1.1350993456585923e+02 1.5151849536213600e+01 -1.0348941612410357e+02 0 0 0
3725 107 4 0.0000000000000000e+00 -1.0624674453048468e+02 2.1366202441381340e+01 -1.0667619781721615e+02 0 0 0
3726 107 4 0.0000000000000000e+00 -1.0046424886063863e+02 1.3305075298517721e+01 -1.1056409865821229e+02 0 0 0
2923 84 1 0.0000000000000000e+00 -9.7268658988351490e+01 1.6509387270935619e+01 -9.9690444137496215e+01 0 0 0
2067 60 2 0.0000000000000000e+00 -7.9721404379921168e+01 1.1575012611707837e+01 -1.0098209583402117e+02 0 0 0
5495 157 4 0.0000000000000000e+00 -7.7637299333112324e+01 2.0700927792255587e+01 -1.0789071561048598e+02 0 0 0
6341 182 4 0.0000000000000000e+00 -6.0763874310447072e+01 1.9093785028060239e+01 -1.0306589537911869e+02 0 0 0
2065 59 2 0.0000000000000000e+00 -4.8244649984562798e+01 1.5748133226779984e+01 -1.0176879812335679e+02 0 0 0
5902 169 4 0.0000000000000000e+00 -3.1991274648997670e+01 2.3766546751234650e+01 -1.0910574435362567e+02 0 0 0
5901 169 4 0.0000000000000000e+00 -3.6498309854989351e+01 2.0047978516425555e+01 -1.0072102577771820e+02 0 0 0
2087 60 2 0.0000000000000000e+00 -4.5195093881727054e+01 -9.8006589921620005e+01 -8.6961991364142023e+01 0 0 0
2801 81 2 0.0000000000000000e+00 -1.4410487158313958e+02 -8.4420362387880360e+01 -9.6226387584472846e+01 0 0 0
2086 60 2 0.0000000000000000e+00 -5.1462622855127947e+01 -9.0181687917822003e+01 -8.5226178009341112e+01 0 0 0
6235 179 4 0.0000000000000000e+00 -1.3211717532531839e+02 -7.0140517782194209e+01 -9.0970594458292851e+01 0 0 0
6513 187 4 0.0000000000000000e+00 -6.4625150482371083e+01 -7.4587704931457580e+01 -9.0478834898763580e+01 0 0 0
6514 187 3 0.0000000000000000e+00 -5.5791514964558068e+01 -7.0141939519308366e+01 -9.1144084643003382e+01 0 0 0
2634 76 2 0.0000000000000000e+00 -3.3485208130405255e+01 -7.4596598450728024e+01 -9.1002535641515522e+01 0 0 0
2806 81 2 0.0000000000000000e+00 -1.1585621994270008e+02 -5.7158793179755833e+01 -8.9679724416839434e+01 0 0 0
2815 81 2 0.0000000000000000e+00 -9.8134896912924603e+01 -6.0339548502034710e+01 -8.8559698114840316e+01 0 0 0
1389 40 2 0.0000000000000000e+00 -7.1414502093690302e+01 -5.6335747204955055e+01 -8.4424175152417206e+01 0 0 0
6515 187 4 0.0000000000000000e+00 -4.9982824941789765e+01 -6.3052651483937723e+01 -9.2547395052054313e+01 0 0 0
1634 47 2 0.0000000000000000e+00 -4.0542447285069350e+01 -5.7258453686745689e+01 -9.1728022460435398e+01 0 0 0
1635 47 1 0.0000000000000000e+00 -3.2149256709802252e+01 -6.2273912115357668e+01 -9.4056224882332131e+01 0 0 0
1374 40 2 0.0000000000000000e+00 -3.5619402915898839e+01 -6.2520772098955099e+01 -8.4370564584273851e+01 0 0 0
2541 73 2 0.0000000000000000e+00 -1.1535236006479072e+02 -4.8026465970030650e+01 -8.6868567464320350e+01 0 0 0
2807 81 2 0.0000000000000000e+00 -1.0665897736844038e+02 -5.4467907444547606e+01 -8.6797269222930652e+01 0 0 0
2809 81 2 0.0000000000000000e+00 -9.7918630891790173e+01 -4.3308585966376768e+01 -8.8202736388258714e+01 0 0 0
5885 169 4 0.0000000000000000e+00 -8.4850495477450266e+01 -5.5501096688220102e+01 -9.6114255942196309e+01 0 0 0
5886 169 4 0.0000000000000000e+00 -9.1488770083837252e+01 -5.2551212973919277e+01 -8.9203962536122859e+01 0 0 0
2810 81 2 0.0000000000000000e+00 -8.9745656113815414e+01 -4.3514481471141309e+01 -9.4056502558251964e+01 0 0 0
3735 107 3 0.0000000000000000e+00 -7.6841857242463377e+01 -4.6094042115396505e+01 -8.8372263623641572e+01 0 0 0
6517 187 4 0.0000000000000000e+00 -5.6513906844274551e+01 -4.7228234706768802e+01 -9.2982489360267593e+01 0 0 0
6516 187 4 0.0000000000000000e+00 -5.2631695719202668e+01 -5.5061635681564681e+01 -8.7597039845698220e+01 0 0 0
1633 47 2 0.0000000000000000e+00 -4.8515621280381673e+01 -5.4073176197683829e+01 -9.6486656489573335e+01 0 0 0
2081 60 2 0.0000000000000000e+00 -4.1055845395970174e+01 -4.8696399493012542e+01 -8.4614025467524314e+01 0 0 0
932 27 2 0.0000000000000000e+00 -1.2314629377458596e+02 -3.4028125901967471e+01 -8.7702961372588305e+01 0 0 0
2542 73 2 0.0000000000000000e+00 -1.1217496767318976e+02 -4.1048746399152257e+01 -9.2398657694893927e+01 0 0 0
931 27 2 0.0000000000000000e+00 -1.1759050307640858e+02 -3.4192085446966452e+01 -9.5815209116300778e+01 0 0 0
2543 73 2 0.0000000000000000e+00 -1.0571312805930259e+02 -3.4774680491318051e+01 -9.5852110352710284e+01 0 0 0
3733 107 4 0.0000000000000000e+00 -8.1402146677438182e+01 -3.0450556190545914e+01 -9.5979458229724159e+01 0 0 0
3734 107 4 0.0000000000000000e+00 -8.1243741001775945e+01 -3.7182167399989098e+01 -8.8580434378527599e+01 0 0 0
6519 187 4 0.0000000000000000e+00 -5.6351335246981478e+01 -3.2455513260626113e+01 -9.3282849190849390e+01 0 0 0
6518 187 4 0.0000000000000000e+00 -4.9585661341673848e+01 -3.9856316077000884e+01 -9.1549968544630218e+01 0 0 0
2212 64 2 0.0000000000000000e+00 -4.6145013893244638e+01 -3.2846951657666729e+01 -8.5537161475171033e+01 0 0 0
2080 60 2 0.0000000000000000e+00 -3.8568901632888632e+01 -4.1484715090888251e+01 -9.2063798171275366e+01 0 0 0
2079 60 2 0.0000000000000000e+00 -3.6442054284858536e+01 -3.2647575839469518e+01 -9.6138495969342557e+01 0 0 0
2934 84 2 0.0000000000000000e+00 -1.1999109203534593e+02 -2.1079504195144878e+01 -8.9601405995843734e+01 0 0 0
929 27 2 0.0000000000000000e+00 -1.0404097946523711e+02 -1.9072863533522742e+01 -9.7398314030780412e+01 0 0 0
6253 179 4 0.0000000000000000e+00 -9.5592695144950369e+01 -2.8714457799970621e+01 -9.1174316022752151e+01 0 0 0
2529 73 2 0.0000000000000000e+00 -8.9489026407730947e+01 -2.0581070019573335e+01 -9.2930688789040559e+01 0 0 0
3732 107 4 0.0000000000000000e+00 -7.9444838647839731e+01 -2.1555684307165237e+01 -9.7998146780638208e+01 0 0 0
2906 84 2 0.0000000000000000e+00 -7.3360029231243686e+01 -2.8845823177887414e+01 -8.6244551371015717e+01 0 0 0
2907 84 2 0.0000000000000000e+00 -6.8746363215114656e+01 -2.2786981614474861e+01 -9.3258373990878766e+01 0 0 0
2073 60 2 0.0000000000000000e+00 -5.6250798233726009e+01 -1.6954056388894966e+01 -8.8036808180817218e+01 0 0 0
5543 159 4 0.0000000000000000e+00 -5.0315416452331675e+01 -2.4886224038922045e+01 -9.0601089297145563e+01 0 0 0
5542 159 4 0.0000000000000000e+00 -4.4702450422554811e+01 -2.1315337407554384e+01 -9.7967866235102662e+01 0 0 0
2078 60 2 0.0000000000000000e+00 -3.1709583197938425e+01 -2.5103299829154924e+01 -9.2257490947397969e+01 0 0 0
5530 158 4 0.0000000000000000e+00 -1.5092533411767758e+02 -1.4678998406440060e+01 -8.8145056376293468e+01 0 0 0
928 27 1 0.0000000000000000e+00 -1.0241297252426573e+02 -9.5745548115763057e+00 -9.6502257713763740e+01 0 0 0
4758 136 4 0.0000000000000000e+00 -9.6865776986008441e+01 -1.3124672164143806e+01 -8.9500177538743785e+01 0 0 0
4757 136 3 0.0000000000000000e+00 -9.1106774380837820e+01 -8.2837962459504872e+00 -9.5461206175642829e+01 0 0 0
2908 84 2 0.0000000000000000e+00 -6.5011797671086455e+01 -1.3691858921055363e+01 -9.4737597505068393e+01 0 0 0
2072 60 2 0.0000000000000000e+00 -6.2621126306095036e+01 -9.1932202237559171e+00 -8.7075139220707328e+01 0 0 0
2909 84 1 0.0000000000000000e+00 -5.5571635039396355e+01 -8.8696609918736069e+00 -9.4401768566274384e+01 0 0 0
2910 84 2 0.0000000000000000e+00 -4.5993532295894482e+01 -8.6799093194335502e+00 -9.3341155745222281e+01 0 0 0
2074 60 2 0.0000000000000000e+00 -4.7146022570729997e+01 -1.4984912847175597e+01 -8.4667324456690608e+01 0 0 0
2911 84 2 0.0000000000000000e+00 -3.9394449032194302e+01 -6.4509102859042340e+00 -8.6140847955832726e+01 0 0 0
2912 84 2 0.0000000000000000e+00 -2.9643108717951279e+01 -4.8170938403626264e+00 -8.5562990965755276e+01 0 0 0
2199 63 2 0.0000000000000000e+00 -1.5079694246835834e+02 3.7516458080051471e+00 -9.7577133340666578e+01 0 0 0
2200 63 2 0.0000000000000000e+00 -1.5364038519881325e+02 6.7611593753651045e+00 -8.8345460137218666e+01 0 0 0
1721 50 2 0.0000000000000000e+00 -1.1645329948883970e+02 -1.3298992412432840e+00 -9.4570865655260718e+01 0 0 0
3713 107 4 0.0000000000000000e+00 -1.2020677119272922e+02 1.0125082415090507e+01 -8.7092411919012321e+01 0 0 0
1722 50 2 0.0000000000000000e+00 -1.1237843911005916e+02 7.1131881924309441e+00 -9.3152749928813137e+01 0 0 0
927 27 2 0.0000000000000000e+00 -1.0275478098865786e+02 -1.5225688193430313e+00 -9.0610121918596008e+01 0 0 0
3729 107 4 0.0000000000000000e+00 -8.3617147010645283e+01 5.3459705060407658e-01 -9.6765539893252566e+01 0 0 0
1725 50 2 0.0000000000000000e+00 -8.6907618036847254e+01 9.3097609401632742e+00 -8.4899398201770467e+01 0 0 0
1724 50 2 0.0000000000000000e+00 -9.5354277586086624e+01 1.0819749872079308e+01 -8.9327892287489234e+01 0 0 0
1726 50 1 0.0000000000000000e+00 -7.8643943405593333e+01 3.3656391527676486e+00 -8.6955473869206799e+01 0 0 0
2071 60 2 0.0000000000000000e+00 -6.4295605677701246e+01 -2.0264688293644606e+00 -9.2986701082566597e+01 0 0 0
4762 137 4 0.0000000000000000e+00 -6.5946012113366194e+01 8.4384303739932527e+00 -9.1064423688224508e+01 0 0 0
6339 182 3 0.0000000000000000e+00 -5.0616433939724146e+01 6.3069762631575639e+00 -9.3084838157038874e+01 0 0 0