LAMMPS data file via write_data, version 5 Jun 2019, timestep = 400000000

7000 atoms
4 atom types
7292 bonds
3 bond types
6600 angles
2 angle types

-5.0000000000000000e+02 5.0000000000000000e+02 xlo xhi
-5.0000000000000000e+02 5.0000000000000000e+02 ylo yhi
-5.0000000000000000e+02 5.0000000000000000e+02 zlo zhi

Masses

1 1000
2 1000
3 1000
4 1000

Pair Coeffs # lj/cut

1 0.296 10
2 0.296 10
3 0.296 10
4 0.296 10

Angle Coeffs # cosine

1 2
2 2

Atoms # full

5424 155 4 0.0000000000000000e+00 -6.0490674649668641e+01 2.5697490284814144e+01 -2.0376068179479313e+02 0 0 0
5425 155 4 0.0000000000000000e+00 -5.2044281002110274e+01 2.1186913583240646e+01 -2.0378250537942762e+02 0 0 0
5420 155 4 0.0000000000000000e+00 -8.7823624471415599e+01 3.6916384455647695e+01 -2.0154680077353854e+02 0 0 0
5421 155 4 0.0000000000000000e+00 -8.0453641157003602e+01 3.1784902868246633e+01 -2.0521555727957553e+02 0 0 0
1790 52 2 0.0000000000000000e+00 -9.0849549851703244e+01 2.7314460989127735e+01 -1.8744114670512667e+02 0 0 0
1789 52 1 0.0000000000000000e+00 -8.1369747847802984e+01 2.9112039827717364e+01 -1.8921907323198801e+02 0 0 0
5423 155 4 0.0000000000000000e+00 -6.9047832580338365e+01 2.8390534716417712e+01 -1.9976214905668462e+02 0 0 0
5422 155 3 0.0000000000000000e+00 -7.6328571677975361e+01 3.4759598518782987e+01 -1.9736163683387500e+02 0 0 0
1786 52 2 0.0000000000000000e+00 -5.8007996286703595e+01 3.6043625856161874e+01 -1.9029850766033192e+02 0 0 0
2240 64 2 0.0000000000000000e+00 -3.4488029054789003e+01 -2.9319073959060201e+01 -1.7599069721385698e+02 0 0 0
2554 73 2 0.0000000000000000e+00 -6.0235196093915526e+01 -8.3302864648207942e-01 -1.7644556861172575e+02 0 0 0
2555 73 2 0.0000000000000000e+00 -6.2132554911636710e+01 5.1961015510061204e+00 -1.8447933989871902e+02 0 0 0
1788 52 2 0.0000000000000000e+00 -7.2100005890856053e+01 2.7711019532585375e+01 -1.8677424054431944e+02 0 0 0
1787 52 2 0.0000000000000000e+00 -6.2048619276122444e+01 2.7731195553757352e+01 -1.8656754534333541e+02 0 0 0
1791 52 2 0.0000000000000000e+00 -9.9835717782167080e+01 3.1000991018210993e+01 -1.8598710856531002e+02 0 0 0
1792 52 2 0.0000000000000000e+00 -1.0766776147408227e+02 3.7328148800578944e+01 -1.8373978313061528e+02 0 0 0
563 17 2 0.0000000000000000e+00 -1.0133314272580184e+02 4.3077587777797604e+01 -1.7455559419807830e+02 0 0 0
5909 169 4 0.0000000000000000e+00 -7.3340798657107086e+01 2.9935806376265919e+01 -1.7504645586257766e+02 0 0 0
5910 169 4 0.0000000000000000e+00 -6.8351880563237501e+01 3.8730023105503307e+01 -1.7435965350921887e+02 0 0 0
5531 159 4 0.0000000000000000e+00 -5.9444311757888137e+01 3.2538983890953283e+01 -1.7517864478879164e+02 0 0 0
5532 159 4 0.0000000000000000e+00 -4.9609378399350724e+01 3.3898983359810096e+01 -1.7640857199945148e+02 0 0 0
3027 87 2 0.0000000000000000e+00 -2.8909357260231285e+01 -3.0717001383746730e+01 -1.6164027458068168e+02 0 0 0
2552 73 1 0.0000000000000000e+00 -6.4154390472210821e+01 -1.2805989987480112e+01 -1.6166505421723261e+02 0 0 0
2239 64 2 0.0000000000000000e+00 -3.4642596545750699e+01 -2.1143505708156688e+01 -1.6977714477257103e+02 0 0 0
2553 73 2 0.0000000000000000e+00 -6.3224884401104411e+01 -7.7347657541442114e+00 -1.7011809791779280e+02 0 0 0
6500 186 3 0.0000000000000000e+00 -5.9497135516854314e+01 -2.9710990253097020e+00 -1.5972813275684777e+02 0 0 0
6501 186 4 0.0000000000000000e+00 -5.0598353557501973e+01 -7.3656991367784990e+00 -1.6250093677324534e+02 0 0 0
6502 186 4 0.0000000000000000e+00 -4.1237448542971229e+01 -8.9193497165360203e+00 -1.6618153748853356e+02 0 0 0
6503 186 4 0.0000000000000000e+00 -3.1368424907185592e+01 -6.4242915946473085e+00 -1.6645014712497186e+02 0 0 0
2907 84 2 0.0000000000000000e+00 -3.9231578297669877e+01 2.2872272601439549e+00 -1.6070313114712079e+02 0 0 0
2524 73 1 0.0000000000000000e+00 -9.9622311687013507e+01 4.9631790978988803e+00 -1.6403949966011550e+02 0 0 0
2523 73 2 0.0000000000000000e+00 -9.6527158876759529e+01 1.4889193566886997e+01 -1.6493974121415624e+02 0 0 0
6494 186 4 0.0000000000000000e+00 -8.7227600681817719e+01 9.2113218618512445e+00 -1.6043195974528615e+02 0 0 0
6495 186 4 0.0000000000000000e+00 -7.9805605974180921e+01 1.0328676078757216e+01 -1.6679998587493574e+02 0 0 0
6499 186 4 0.0000000000000000e+00 -6.1816890911056397e+01 5.8885217388485680e+00 -1.6338905673869624e+02 0 0 0
6498 186 4 0.0000000000000000e+00 -6.0710180485975769e+01 1.5670846212384928e+01 -1.6622380082005390e+02 0 0 0
6496 186 4 0.0000000000000000e+00 -7.3050554920299248e+01 1.6275582578307237e+01 -1.6260366556475620e+02 0 0 0
5908 169 4 0.0000000000000000e+00 -7.9886436156688887e+01 2.9315709960910340e+01 -1.6710720603632345e+02 0 0 0
6497 186 4 0.0000000000000000e+00 -6.6649648544333260e+01 2.3662538783601711e+01 -1.6524779391521000e+02 0 0 0
1795 52 2 0.0000000000000000e+00 -1.1112112003021622e+02 4.0916248628250905e+01 -1.6601137216170085e+02 0 0 0
562 17 2 0.0000000000000000e+00 -9.7744491611827058e+01 3.3255360741726236e+01 -1.7298556833018597e+02 0 0 0
1796 52 1 0.0000000000000000e+00 -1.0585345228966440e+02 3.3173592589130379e+01 -1.6290753502667084e+02 0 0 0
561 17 2 0.0000000000000000e+00 -8.8712060244627125e+01 3.4463194672419178e+01 -1.6882633295281641e+02 0 0 0
2072 60 2 0.0000000000000000e+00 -7.1527888003784341e+01 3.5245436577832820e+01 -1.6470329956972873e+02 0 0 0
5534 159 3 0.0000000000000000e+00 -5.4600241997483216e+01 4.2800967537360620e+01 -1.6590009151956644e+02 0 0 0
595 17 2 0.0000000000000000e+00 -2.9580662670108623e+01 3.3483468931808240e+01 -1.7050262171452647e+02 0 0 0
594 17 2 0.0000000000000000e+00 -3.7198085885691569e+01 4.0134057294720066e+01 -1.7044844984226788e+02 0 0 0
6189 177 4 0.0000000000000000e+00 -3.1958488783061657e+01 4.2584874707273578e+01 -1.6159336198091529e+02 0 0 0
1050 30 2 0.0000000000000000e+00 -3.6426814015038417e+01 -6.6319499166863210e+01 -1.4968285407478308e+02 0 0 0
2547 73 2 0.0000000000000000e+00 -9.5791644574896296e+01 -3.8889596683303949e+01 -1.4783179098827699e+02 0 0 0
2548 73 2 0.0000000000000000e+00 -8.7748930612147760e+01 -3.1944183188458396e+01 -1.4775912008535701e+02 0 0 0
4748 136 4 0.0000000000000000e+00 -7.7480780072195429e+01 -3.7476865713051048e+01 -1.4868267327505910e+02 0 0 0
4747 136 4 0.0000000000000000e+00 -6.9076551532127297e+01 -3.4647787853764157e+01 -1.5290667532542187e+02 0 0 0
2549 73 2 0.0000000000000000e+00 -8.0019554750302305e+01 -2.5120177014212295e+01 -1.4695958208168344e+02 0 0 0
4746 136 4 0.0000000000000000e+00 -6.1884053379001941e+01 -3.1174747350150195e+01 -1.5824157380927659e+02 0 0 0
4745 136 4 0.0000000000000000e+00 -5.5104749803696528e+01 -2.5292420343392273e+01 -1.5512220144273957e+02 0 0 0
4744 136 4 0.0000000000000000e+00 -4.6876744419625815e+01 -2.6616470326284343e+01 -1.4980277850561285e+02 0 0 0
2237 64 1 0.0000000000000000e+00 -3.6299711471706836e+01 -2.7767622345394361e+01 -1.5501029071292217e+02 0 0 0
2236 64 2 0.0000000000000000e+00 -3.5407730009787961e+01 -3.5086612385689790e+01 -1.4778634228095035e+02 0 0 0
2527 73 2 0.0000000000000000e+00 -1.0649823457208282e+02 -1.5380987222103460e+01 -1.4657343700990455e+02 0 0 0
2526 73 2 0.0000000000000000e+00 -1.0349750671792026e+02 -1.1926470886448747e+01 -1.5589542189785493e+02 0 0 0
2550 73 2 0.0000000000000000e+00 -7.3351436873601656e+01 -1.7766469375705150e+01 -1.4925485072816491e+02 0 0 0
2551 73 2 0.0000000000000000e+00 -6.5625132604889558e+01 -1.2665118312513018e+01 -1.5187863497792947e+02 0 0 0
6517 187 4 0.0000000000000000e+00 -5.7696661265594550e+01 -1.7847353619535749e+01 -1.4631172570477713e+02 0 0 0
6518 187 4 0.0000000000000000e+00 -5.1344489807463901e+01 -1.2251404768341528e+01 -1.5222245433610794e+02 0 0 0
4743 136 3 0.0000000000000000e+00 -3.9800347928497295e+01 -1.9857533649805092e+01 -1.4798459966038959e+02 0 0 0
2238 64 2 0.0000000000000000e+00 -3.4994703572339354e+01 -1.9269190590109496e+01 -1.5960900777097777e+02 0 0 0
4742 136 4 0.0000000000000000e+00 -3.2693487212558267e+01 -1.2653485880318270e+01 -1.4738045120269763e+02 0 0 0
2525 73 2 0.0000000000000000e+00 -1.0120603552488363e+02 -2.6456724448417983e+00 -1.5894010224186817e+02 0 0 0
2925 84 2 0.0000000000000000e+00 -9.7478658472373354e+01 -7.3134888405912237e+00 -1.4631986147812992e+02 0 0 0
6311 181 3 0.0000000000000000e+00 -6.9951834744661724e+01 -3.4917457433943793e+00 -1.4740519481568268e+02 0 0 0
6519 187 4 0.0000000000000000e+00 -4.8384268473178295e+01 -2.8740960363817174e+00 -1.5390857046710798e+02 0 0 0
2906 84 2 0.0000000000000000e+00 -3.6378824019370903e+01 -5.4738347639269058e+00 -1.5506258617884487e+02 0 0 0
4741 136 4 0.0000000000000000e+00 -2.8211326824758281e+01 -4.0153176044428243e+00 -1.4919776732879583e+02 0 0 0
6489 186 4 0.0000000000000000e+00 -1.2995199646287432e+02 6.3900051707166448e+00 -1.5358558655553449e+02 0 0 0
6490 186 4 0.0000000000000000e+00 -1.2128089223903352e+02 6.3798031227027856e+00 -1.5818137822006074e+02 0 0 0
6491 186 4 0.0000000000000000e+00 -1.1419168915269047e+02 7.7147123057454792e+00 -1.5164018784465449e+02 0 0 0
6492 186 4 0.0000000000000000e+00 -1.0436991452186548e+02 1.0710637066024157e+01 -1.5288330404327726e+02 0 0 0
6493 186 3 0.0000000000000000e+00 -9.5357526845543475e+01 1.1093337729083098e+01 -1.5579866234158064e+02 0 0 0
6312 181 4 0.0000000000000000e+00 -7.5620996940108910e+01 3.2177333470560394e+00 -1.5281690946025680e+02 0 0 0
2075 60 2 0.0000000000000000e+00 -6.8201082565964214e+01 1.2801098828697507e+01 -1.4614348605512231e+02 0 0 0
6521 187 3 0.0000000000000000e+00 -5.7792411047292134e+01 1.0914864853140706e+01 -1.4919832272556150e+02 0 0 0
6520 187 4 0.0000000000000000e+00 -5.2784491320558836e+01 5.7974491968645356e+00 -1.5617949264261986e+02 0 0 0
2908 84 2 0.0000000000000000e+00 -4.3025272992066185e+01 1.1392058867636255e+01 -1.5757677543328094e+02 0 0 0
2909 84 1 0.0000000000000000e+00 -5.1555823399651636e+01 1.5807841662884085e+01 -1.5687891656083087e+02 0 0 0
5540 159 4 0.0000000000000000e+00 -4.4073938804858606e+01 1.0572257347827742e+01 -1.4760717014268616e+02 0 0 0
1627 47 2 0.0000000000000000e+00 -3.2818024518195671e+01 6.6200131128864204e+00 -1.5310779747420645e+02 0 0 0
6340 182 4 0.0000000000000000e+00 -1.2019622595776320e+02 2.6796347766562899e+01 -1.5823923502959701e+02 0 0 0
6339 182 3 0.0000000000000000e+00 -1.1037425106975378e+02 2.4741813152531844e+01 -1.5736452955875359e+02 0 0 0
6338 182 4 0.0000000000000000e+00 -1.0412158168686307e+02 2.3646342768477332e+01 -1.4952115676145593e+02 0 0 0
1797 52 2 0.0000000000000000e+00 -9.7730274729615800e+01 2.9246694966428020e+01 -1.5811148754370811e+02 0 0 0
2522 73 2 0.0000000000000000e+00 -9.2413184630125770e+01 2.1464436895363395e+01 -1.5880090263356340e+02 0 0 0
2521 73 2 0.0000000000000000e+00 -8.3141878384084492e+01 2.3268887953068287e+01 -1.5571626594948259e+02 0 0 0
2073 60 2 0.0000000000000000e+00 -7.1689480820561855e+01 2.8900358925653482e+01 -1.5651643328361155e+02 0 0 0
2074 60 2 0.0000000000000000e+00 -7.2480623723736556e+01 2.0036067215138115e+01 -1.5133435174608573e+02 0 0 0
2911 84 2 0.0000000000000000e+00 -6.3668263125274933e+01 2.9397167895201452e+01 -1.5071132901006462e+02 0 0 0
2910 84 2 0.0000000000000000e+00 -5.5958813939156393e+01 2.4513105656985367e+01 -1.5568937897590871e+02 0 0 0
6341 182 4 0.0000000000000000e+00 -1.2105053389854824e+02 3.6555173748897971e+01 -1.5911701226997374e+02 0 0 0
6300 180 4 0.0000000000000000e+00 -1.1096072008824834e+02 3.1401576304723257e+01 -1.4642848428789526e+02 0 0 0
735 21 2 0.0000000000000000e+00 -1.0212658020531711e+02 3.8935844813611212e+01 -1.5360416013079998e+02 0 0 0
1798 52 2 0.0000000000000000e+00 -9.3056290221320083e+01 3.1110659924196039e+01 -1.4963315686100756e+02 0 0 0
1799 52 2 0.0000000000000000e+00 -8.3731327707800304e+01 3.4043670834467846e+01 -1.4680698894152383e+02 0 0 0
5907 169 4 0.0000000000000000e+00 -8.0570535779751651e+01 3.5429150871572915e+01 -1.5949694000705810e+02 0 0 0
1801 52 2 0.0000000000000000e+00 -7.0036936857287557e+01 4.0740366032508888e+01 -1.5286904352824436e+02 0 0 0
1800 52 2 0.0000000000000000e+00 -7.3533359407318471e+01 3.4172485869620886e+01 -1.4682244895193594e+02 0 0 0
5536 159 4 0.0000000000000000e+00 -5.9521000588914717e+01 3.8948074619050665e+01 -1.4757047554364866e+02 0 0 0
5535 159 4 0.0000000000000000e+00 -5.5564891054956014e+01 4.0400636206972166e+01 -1.5637229998459748e+02 0 0 0
6188 177 4 0.0000000000000000e+00 -3.7170301012362351e+01 4.1277476214824965e+01 -1.5252005344818190e+02 0 0 0
2543 73 2 0.0000000000000000e+00 -1.0223718997357135e+02 -6.8924701847660685e+01 -1.3576158927138249e+02 0 0 0
2542 73 2 0.0000000000000000e+00 -1.0159666503990806e+02 -7.8172674858886268e+01 -1.3584311599015956e+02 0 0 0
4726 136 4 0.0000000000000000e+00 -3.1614885251125820e+01 -7.7176038903983880e+01 -1.4376546126558671e+02 0 0 0
2544 73 2 0.0000000000000000e+00 -1.0337821566531994e+02 -5.8798498758874622e+01 -1.3324058579898298e+02 0 0 0
2233 64 2 0.0000000000000000e+00 -4.1990110207016151e+01 -6.1426993655758025e+01 -1.3664863374039848e+02 0 0 0
2234 64 2 0.0000000000000000e+00 -4.0599264789821532e+01 -5.2717090835016961e+01 -1.4103871551363540e+02 0 0 0
1049 30 2 0.0000000000000000e+00 -3.1909416258234479e+01 -6.2004377499717428e+01 -1.4215630772502644e+02 0 0 0
2546 73 2 0.0000000000000000e+00 -1.0402446602138761e+02 -4.3388991309067457e+01 -1.4508084358458868e+02 0 0 0
2545 73 1 0.0000000000000000e+00 -1.0264578052528196e+02 -5.1002347290665099e+01 -1.3864342106982551e+02 0 0 0
6255 179 3 0.0000000000000000e+00 -1.0808541510194564e+02 -4.1443251426043489e+01 -1.3618491195146635e+02 0 0 0
2631 76 2 0.0000000000000000e+00 -6.1823119291037607e+01 -4.8353780109551714e+01 -1.3332555950342805e+02 0 0 0
1634 47 2 0.0000000000000000e+00 -4.8337671590393690e+01 -4.6222278319103012e+01 -1.3476863592552783e+02 0 0 0
2235 64 2 0.0000000000000000e+00 -3.9397817376180065e+01 -4.2862325033823907e+01 -1.4213999098583494e+02 0 0 0
6256 179 4 0.0000000000000000e+00 -9.9474547389405004e+01 -3.5149482824709601e+01 -1.3732804421327296e+02 0 0 0
6257 179 4 0.0000000000000000e+00 -9.4752058262602901e+01 -2.6040949957505159e+01 -1.3888152349240016e+02 0 0 0
4749 136 4 0.0000000000000000e+00 -8.3047057159485831e+01 -3.6427594187923638e+01 -1.4052896125230757e+02 0 0 0
4750 136 3 0.0000000000000000e+00 -8.2017071471164144e+01 -2.7556073418788920e+01 -1.3668050515141334e+02 0 0 0
2629 76 1 0.0000000000000000e+00 -7.1953642325111147e+01 -3.2078284566443195e+01 -1.3630240242209177e+02 0 0 0
6515 187 4 0.0000000000000000e+00 -5.5638065946578287e+01 -3.5224152253186787e+01 -1.3744511268867410e+02 0 0 0
6516 187 4 0.0000000000000000e+00 -5.8346679865433849e+01 -2.6291885543514052e+01 -1.4137403612766744e+02 0 0 0
1633 47 2 0.0000000000000000e+00 -4.4897488417151713e+01 -3.6797068111992637e+01 -1.3399085731717301e+02 0 0 0
1632 47 2 0.0000000000000000e+00 -3.9782578517351091e+01 -2.9298860479485722e+01 -1.3873818230500706e+02 0 0 0
6264 179 4 0.0000000000000000e+00 -1.2499042398841299e+02 -1.9333246750032778e+01 -1.3437865701455158e+02 0 0 0
6265 179 4 0.0000000000000000e+00 -1.2375101022795317e+02 -2.2562771678087017e+01 -1.4431551653898313e+02 0 0 0
2528 73 2 0.0000000000000000e+00 -1.0713838126974042e+02 -1.9995592331014691e+01 -1.3761167434380528e+02 0 0 0
2628 76 2 0.0000000000000000e+00 -7.2231485884941449e+01 -2.2821621674480053e+01 -1.3951724660537943e+02 0 0 0
2627 76 2 0.0000000000000000e+00 -6.6605358072880733e+01 -1.4613041899887724e+01 -1.3964063869024301e+02 0 0 0
5543 159 4 0.0000000000000000e+00 -5.1081010559451087e+01 -1.5131180330993795e+01 -1.3762909751070401e+02 0 0 0
1631 47 2 0.0000000000000000e+00 -3.2587027910311711e+01 -2.2147772979562696e+01 -1.3753262913586232e+02 0 0 0
1630 47 2 0.0000000000000000e+00 -3.5626542542294807e+01 -1.2563785857641824e+01 -1.3576316669364601e+02 0 0 0
2928 84 2 0.0000000000000000e+00 -1.2100658143588581e+02 -2.9529476404685551e+00 -1.3736650505856286e+02 0 0 0
2927 84 2 0.0000000000000000e+00 -1.1277430311445359e+02 -8.2401671021024825e+00 -1.3923527415935476e+02 0 0 0
2926 84 2 0.0000000000000000e+00 -1.0322529653415512e+02 -7.0921782955166490e+00 -1.3769769017356452e+02 0 0 0
2924 84 2 0.0000000000000000e+00 -9.3126428659962556e+01 9.5089442848072403e-01 -1.4403944864295846e+02 0 0 0
6310 181 4 0.0000000000000000e+00 -7.5209636977435650e+01 -4.3699766088631709e+00 -1.3886508755131089e+02 0 0 0
2626 76 2 0.0000000000000000e+00 -6.0833690271407718e+01 -7.5035701879267673e+00 -1.4413799439656566e+02 0 0 0
2077 60 2 0.0000000000000000e+00 -5.9342781956138694e+01 1.5815272941082723e-01 -1.3503629305491438e+02 0 0 0
5541 159 3 0.0000000000000000e+00 -4.5470491806586821e+01 8.7803596788910654e-01 -1.4502998300100285e+02 0 0 0
5542 159 4 0.0000000000000000e+00 -4.8571175170222432e+01 -7.5137117619868370e+00 -1.4362983118466775e+02 0 0 0
1629 47 2 0.0000000000000000e+00 -3.7187576084891660e+01 -3.5448992453117016e+00 -1.3988820486724717e+02 0 0 0
6488 186 4 0.0000000000000000e+00 -1.3117941414652151e+02 3.0022955966040552e+00 -1.4447039376664560e+02 0 0 0
6487 186 4 0.0000000000000000e+00 -1.2634117585708616e+02 7.1131831100692438e+00 -1.3784730280577429e+02 0 0 0
1720 50 2 0.0000000000000000e+00 -1.1295479114137997e+02 1.4085196898924908e+01 -1.3560087332747509e+02 0 0 0
1721 50 2 0.0000000000000000e+00 -1.0776483224969901e+02 7.6966908851665261e+00 -1.4095632585907765e+02 0 0 0
1722 50 2 0.0000000000000000e+00 -1.0214346929446545e+02 3.9930286831583901e+00 -1.3362533795026323e+02 0 0 0
2923 84 1 0.0000000000000000e+00 -8.9491765268111450e+01 8.3921976871438151e+00 -1.3964657362740121e+02 0 0 0
6313 181 4 0.0000000000000000e+00 -8.1723544105728521e+01 3.1647517358832373e+00 -1.4474246338799580e+02 0 0 0
6314 181 4 0.0000000000000000e+00 -7.8757571718521106e+01 1.1263217083601965e+01 -1.3906584215539249e+02 0 0 0
6315 181 4 0.0000000000000000e+00 -7.0090621266570892e+01 1.1866759688554776e+01 -1.3489135888135090e+02 0 0 0
2076 60 1 0.0000000000000000e+00 -6.5581103043083587e+01 4.9461050915396338e+00 -1.4111372709274380e+02 0 0 0
2206 64 2 0.0000000000000000e+00 -5.1418251479704473e+01 8.8134715180756853e+00 -1.3856226720774870e+02 0 0 0
2207 64 2 0.0000000000000000e+00 -4.3695296069389073e+01 9.3499243556280156e+00 -1.3300346353078842e+02 0 0 0
1628 47 1 0.0000000000000000e+00 -3.5660859212263311e+01 5.9410076917025609e+00 -1.4325587918184024e+02 0 0 0
1534 44 2 0.0000000000000000e+00 -2.9944530227361028e+01 9.9561528592877604e+00 -1.3346370924490958e+02 0 0 0
6486 186 3 0.0000000000000000e+00 -1.2548746578758929e+02 1.6651636223150625e+01 -1.3581807397414374e+02 0 0 0
6337 182 4 0.0000000000000000e+00 -9.9383411069803344e+01 2.7468363734162601e+01 -1.4173545618244844e+02 0 0 0
2922 84 2 0.0000000000000000e+00 -9.1687617470185657e+01 1.7563722012843140e+01 -1.3777981471274558e+02 0 0 0
5901 169 4 0.0000000000000000e+00 -8.2852199536982539e+01 2.3603775830460954e+01 -1.4041099492687167e+02 0 0 0
5900 169 4 0.0000000000000000e+00 -7.6428536222198460e+01 1.9233512135225801e+01 -1.3358979590253628e+02 0 0 0
2912 84 2 0.0000000000000000e+00 -6.7032105973576748e+01 2.4065294589776702e+01 -1.4289159237927726e+02 0 0 0
6522 187 4 0.0000000000000000e+00 -5.9191978023425996e+01 1.7532240901616358e+01 -1.4191693092618598e+02 0 0 0
6523 187 4 0.0000000000000000e+00 -5.5758697561691640e+01 2.1429997416859166e+01 -1.3282457858653152e+02 0 0 0
2913 84 2 0.0000000000000000e+00 -6.6487110070956660e+01 2.1487227091395063e+01 -1.3325061671184690e+02 0 0 0
5539 159 4 0.0000000000000000e+00 -4.9400742062091666e+01 1.8698231852484511e+01 -1.4465476495350779e+02 0 0 0
5538 159 4 0.0000000000000000e+00 -5.4960526115062194e+01 2.6629757471673233e+01 -1.4196973515906203e+02 0 0 0
3395 97 2 0.0000000000000000e+00 -4.4492301902186014e+01 2.4200795348003666e+01 -1.3576997562878208e+02 0 0 0
6299 180 4 0.0000000000000000e+00 -1.0517405020359226e+02 3.6247532398186920e+01 -1.3957386783096118e+02 0 0 0
6336 182 4 0.0000000000000000e+00 -9.3955286911165075e+01 3.1485238044145103e+01 -1.3422936007863862e+02 0 0 0
5902 169 4 0.0000000000000000e+00 -8.3049527687111862e+01 3.3098676834588055e+01 -1.3714580004447174e+02 0 0 0
5903 169 4 0.0000000000000000e+00 -8.7057568064398652e+01 4.2279384126978925e+01 -1.3940156604568634e+02 0 0 0
5537 159 4 0.0000000000000000e+00 -5.9322903545504097e+01 3.5445164916816793e+01 -1.3827229038638345e+02 0 0 0
3394 97 2 0.0000000000000000e+00 -5.0919989762296012e+01 3.1881516265163029e+01 -1.3434728393571390e+02 0 0 0
2541 73 2 0.0000000000000000e+00 -1.0431165983881083e+02 -8.0498604068792389e+01 -1.2628120810679454e+02 0 0 0
2232 64 2 0.0000000000000000e+00 -4.2237495963128090e+01 -7.0153362865962791e+01 -1.3224070773140298e+02 0 0 0
2230 64 1 0.0000000000000000e+00 -2.9877826290758417e+01 -7.5350256471897140e+01 -1.2025695503087842e+02 0 0 0
2231 64 2 0.0000000000000000e+00 -3.7235505061859847e+01 -7.6994745371702592e+01 -1.2635417895521408e+02 0 0 0
6252 179 4 0.0000000000000000e+00 -1.2671355638036634e+02 -5.8353678802500859e+01 -1.2150332232252835e+02 0 0 0
6253 179 4 0.0000000000000000e+00 -1.1953241746845464e+02 -5.5192129086180380e+01 -1.2743649711366513e+02 0 0 0
1366 40 2 0.0000000000000000e+00 -7.9022535908133165e+01 -5.2318046702209216e+01 -1.2368849725534149e+02 0 0 0
2632 76 2 0.0000000000000000e+00 -5.8970426432683453e+01 -5.7882594538679960e+01 -1.3096954607026316e+02 0 0 0
2085 60 2 0.0000000000000000e+00 -5.5841322116242999e+01 -5.6536178177198614e+01 -1.1984300810527381e+02 0 0 0
2633 76 2 0.0000000000000000e+00 -5.0285185681913156e+01 -6.0328480479458570e+01 -1.2924079817414176e+02 0 0 0
2634 76 2 0.0000000000000000e+00 -4.6490051450473963e+01 -5.9368091669906669e+01 -1.2071413722089326e+02 0 0 0
5458 156 4 0.0000000000000000e+00 -3.6727495886720490e+01 -6.4173368031418477e+01 -1.2382929084309529e+02 0 0 0
5457 156 3 0.0000000000000000e+00 -2.8886369909018224e+01 -5.8497062742985655e+01 -1.2775232851588559e+02 0 0 0
3743 107 4 0.0000000000000000e+00 -1.2334948740914322e+02 -3.9373345733463658e+01 -1.2362552148354519e+02 0 0 0
6254 179 4 0.0000000000000000e+00 -1.1273802204687635e+02 -4.9178465263969699e+01 -1.3184355734114740e+02 0 0 0
5882 169 4 0.0000000000000000e+00 -1.0151883238283976e+02 -4.9078692308332478e+01 -1.2408910822160364e+02 0 0 0
5881 169 4 0.0000000000000000e+00 -1.0171806291124926e+02 -3.9543457835216181e+01 -1.2570802466711500e+02 0 0 0
1367 40 2 0.0000000000000000e+00 -7.4240282880143909e+01 -4.4233006415174586e+01 -1.2617554721265611e+02 0 0 0
2630 76 2 0.0000000000000000e+00 -6.7493453104588369e+01 -3.9980446417495074e+01 -1.3192492793189535e+02 0 0 0
6513 187 4 0.0000000000000000e+00 -6.3544444948333293e+01 -4.4757536410515996e+01 -1.2205007149840000e+02 0 0 0
6514 187 3 0.0000000000000000e+00 -5.8084076122440003e+01 -3.8563216293509747e+01 -1.2803694064522929e+02 0 0 0
2083 60 1 0.0000000000000000e+00 -4.7997833516602817e+01 -4.0827212530029172e+01 -1.2353021468140783e+02 0 0 0
1635 47 1 0.0000000000000000e+00 -4.4880801214874701e+01 -5.1807822105227146e+01 -1.2752260310384726e+02 0 0 0
1636 47 2 0.0000000000000000e+00 -3.5990363740348812e+01 -4.9537843124535442e+01 -1.2216413375257923e+02 0 0 0
253 8 2 0.0000000000000000e+00 -3.7374566748684614e+01 -4.0339501018191172e+01 -1.2211621058079537e+02 0 0 0
252 8 2 0.0000000000000000e+00 -3.3243311318582059e+01 -4.3257719725899136e+01 -1.3076067490594235e+02 0 0 0
3744 107 4 0.0000000000000000e+00 -1.1304636348155002e+02 -3.7722400378323314e+01 -1.2489299235477867e+02 0 0 0
3745 107 4 0.0000000000000000e+00 -1.0710943958595840e+02 -3.0009663468284149e+01 -1.2202320486585300e+02 0 0 0
3734 107 4 0.0000000000000000e+00 -8.6335074647903667e+01 -3.0360749567013844e+01 -1.1936792981585982e+02 0 0 0
3733 107 4 0.0000000000000000e+00 -7.9191348704172825e+01 -2.6001637020004289e+01 -1.2538836470229491e+02 0 0 0
1368 40 2 0.0000000000000000e+00 -7.2287570862419798e+01 -3.4407903812552867e+01 -1.2530548036162145e+02 0 0 0
2082 60 2 0.0000000000000000e+00 -4.2608206706793126e+01 -3.2259084316626591e+01 -1.2467911402618147e+02 0 0 0
2530 73 2 0.0000000000000000e+00 -1.2251349230757295e+02 -2.3840868222246748e+01 -1.2491758472153543e+02 0 0 0
2529 73 2 0.0000000000000000e+00 -1.1455221106483479e+02 -2.2061121693489916e+01 -1.3024205966956563e+02 0 0 0
6263 179 4 0.0000000000000000e+00 -1.2160613892871513e+02 -1.3074650670061523e+01 -1.2702808945093136e+02 0 0 0
6258 179 4 0.0000000000000000e+00 -9.8846807724460362e+01 -1.9169484617977428e+01 -1.3184449837564424e+02 0 0 0
6259 179 4 0.0000000000000000e+00 -9.9005459498013352e+01 -1.5525319995540823e+01 -1.2266815774432288e+02 0 0 0
4751 136 4 0.0000000000000000e+00 -8.2396037059119678e+01 -1.8389817850762164e+01 -1.3209192096747162e+02 0 0 0
4752 136 4 0.0000000000000000e+00 -8.9726931053216830e+01 -2.1449182591140485e+01 -1.2595317879719620e+02 0 0 0
3732 107 4 0.0000000000000000e+00 -7.3223203721957134e+01 -1.9280715107900807e+01 -1.2268979145585078e+02 0 0 0
5544 159 4 0.0000000000000000e+00 -5.3470536891263400e+01 -1.7723698593965235e+01 -1.2866862868116024e+02 0 0 0
1371 40 2 0.0000000000000000e+00 -5.4896605265454298e+01 -2.0810817631171457e+01 -1.1938141510282288e+02 0 0 0
2080 60 2 0.0000000000000000e+00 -3.8763940663809400e+01 -1.3440871792251409e+01 -1.2569469738510406e+02 0 0 0
2081 60 2 0.0000000000000000e+00 -3.7602307612388756e+01 -2.3130207802708462e+01 -1.2355051166270994e+02 0 0 0
2929 84 2 0.0000000000000000e+00 -1.2200918925307963e+02 2.1661275806438035e-01 -1.2750571117096217e+02 0 0 0
6262 179 3 0.0000000000000000e+00 -1.1606564946664713e+02 -6.0287538149116582e+00 -1.2241436542695909e+02 0 0 0
6261 179 4 0.0000000000000000e+00 -1.0899483711592164e+02 3.0255383913014411e-01 -1.2382307408938098e+02 0 0 0
6260 179 4 0.0000000000000000e+00 -1.0087872717012874e+02 -5.2600262693336521e+00 -1.2322662546990760e+02 0 0 0
3729 107 4 0.0000000000000000e+00 -8.8620629672258829e+01 -1.8204130442440747e+00 -1.2454325507933930e+02 0 0 0
3730 107 4 0.0000000000000000e+00 -8.8678934114407497e+01 -1.0187327558451260e+01 -1.1975240603043987e+02 0 0 0
6308 181 4 0.0000000000000000e+00 -7.3393459754033756e+01 -9.2241185421029019e+00 -1.1910992553413556e+02 0 0 0
6309 181 4 0.0000000000000000e+00 -7.2982613151854849e+01 -8.2548082583052107e+00 -1.2966397611540907e+02 0 0 0
5545 159 4 0.0000000000000000e+00 -6.0380763137789032e+01 -1.0770598508384948e+01 -1.2852249596851931e+02 0 0 0
5546 159 4 0.0000000000000000e+00 -6.1878313889907155e+01 -4.1726279100623493e+00 -1.2086334814950698e+02 0 0 0
2078 60 2 0.0000000000000000e+00 -5.3410306883452371e+01 6.1791075893194963e-02 -1.2734960457316393e+02 0 0 0
2079 60 2 0.0000000000000000e+00 -4.6138145535340605e+01 -6.4688069684031753e+00 -1.2449121545659386e+02 0 0 0
1380 40 2 0.0000000000000000e+00 -3.2728195672212976e+01 -2.5342634168011147e+00 -1.2203330329379061e+02 0 0 0
1379 40 2 0.0000000000000000e+00 -2.8079552898869370e+01 -9.8576182854974483e+00 -1.2796108612998029e+02 0 0 0
1718 50 2 0.0000000000000000e+00 -1.2639572371348731e+02 1.4343478725272199e+01 -1.2086474285902968e+02 0 0 0
1719 50 1 0.0000000000000000e+00 -1.1879153391697859e+02 1.2573198527703971e+01 -1.2711426525563506e+02 0 0 0
3313 95 2 0.0000000000000000e+00 -1.0836117835883519e+02 1.2171002717905976e+01 -1.2192304169229915e+02 0 0 0
1723 50 2 0.0000000000000000e+00 -9.8255437758467153e+01 4.4339130540414553e+00 -1.2396704851833908e+02 0 0 0
3728 107 3 0.0000000000000000e+00 -8.7415193497891622e+01 7.1611027749643759e+00 -1.2818364734255209e+02 0 0 0
5898 169 3 0.0000000000000000e+00 -7.5923277947998159e+01 7.0954584227009549e+00 -1.2038179221272283e+02 0 0 0
6316 181 4 0.0000000000000000e+00 -6.0926371448775555e+01 1.2209945585877394e+01 -1.3132371077822620e+02 0 0 0
2209 64 1 0.0000000000000000e+00 -4.4473073619287248e+01 3.7323901896044367e+00 -1.2041523788090907e+02 0 0 0
6317 181 4 0.0000000000000000e+00 -5.1337728340530241e+01 1.3641917145490227e+01 -1.2724339964423149e+02 0 0 0
6318 181 3 0.0000000000000000e+00 -4.5699082765846789e+01 1.4760031552648746e+01 -1.1961911642776708e+02 0 0 0
2208 64 2 0.0000000000000000e+00 -3.7035928592977093e+01 6.2963909431368617e+00 -1.2667902848977155e+02 0 0 0
1533 44 2 0.0000000000000000e+00 -3.5041841353439665e+01 1.5762279214997077e+01 -1.2720413593270135e+02 0 0 0
6485 186 4 0.0000000000000000e+00 -1.2368125851896193e+02 2.3667752410829660e+01 -1.2894795279089288e+02 0 0 0
3312 95 2 0.0000000000000000e+00 -1.0481304766410568e+02 1.7084412452097098e+01 -1.2903654821063836e+02 0 0 0
3311 95 2 0.0000000000000000e+00 -1.0645231761051086e+02 2.6455125109833784e+01 -1.2764746157264277e+02 0 0 0
3727 107 4 0.0000000000000000e+00 -8.7034548416205013e+01 1.6815468304174527e+01 -1.2614327031118901e+02 0 0 0
2920 84 2 0.0000000000000000e+00 -9.5299593026862723e+01 1.9107809483478313e+01 -1.2028108010838842e+02 0 0 0
2921 84 2 0.0000000000000000e+00 -9.4792649233548261e+01 2.2702511078101352e+01 -1.2968692892754464e+02 0 0 0
5899 169 4 0.0000000000000000e+00 -7.4401635794885976e+01 1.6659696901774026e+01 -1.2433241657410925e+02 0 0 0
5120 147 4 0.0000000000000000e+00 -7.2434832567116828e+01 2.6768073021077996e+01 -1.2224985436563736e+02 0 0 0
2914 84 2 0.0000000000000000e+00 -6.4587452228168331e+01 2.1068269997811072e+01 -1.2348084447792219e+02 0 0 0
6524 187 4 0.0000000000000000e+00 -5.1342059509241047e+01 2.4784501504652944e+01 -1.2521712396557714e+02 0 0 0
1532 44 2 0.0000000000000000e+00 -3.6672849296596304e+01 2.1671026660723662e+01 -1.1954741941534027e+02 0 0 0
2203 63 2 0.0000000000000000e+00 -1.3424717074967825e+02 4.0284069682328145e+01 -1.2488121417377270e+02 0 0 0
2202 63 1 0.0000000000000000e+00 -1.2566928145649251e+02 4.2391165257355595e+01 -1.3043266329457074e+02 0 0 0
6484 186 4 0.0000000000000000e+00 -1.1779043704490081e+02 3.1221124114048187e+01 -1.2897124805610360e+02 0 0 0
6483 186 4 0.0000000000000000e+00 -1.1530226637837617e+02 4.0768883810633291e+01 -1.2796609789245313e+02 0 0 0
3310 95 2 0.0000000000000000e+00 -1.0954047631408149e+02 3.2786792301396069e+01 -1.2057407269083558e+02 0 0 0