LAMMPS data file via write_data, version 5 Jun 2019, timestep = 400000000

7000 atoms
4 atom types
7290 bonds
3 bond types
6600 angles
2 angle types

-5.0000000000000000e+02 5.0000000000000000e+02 xlo xhi
-5.0000000000000000e+02 5.0000000000000000e+02 ylo yhi
-5.0000000000000000e+02 5.0000000000000000e+02 zlo zhi

Masses

1 1000
2 1000
3 1000
4 1000

Pair Coeffs # lj/cut

1 0.296 10
2 0.296 10
3 0.296 10
4 0.296 10

Angle Coeffs # cosine

1 2
2 2

Atoms # full

2521 73 2 0.0000000000000000e+00 -5.9010312524893862e+01 -3.5218941183319096e+01 -1.4036627899102376e+02 0 0 0
6264 179 4 0.0000000000000000e+00 -1.0404716511609226e+02 -8.8646345384981746e+00 -1.3843010061891320e+02 0 0 0
6265 179 4 0.0000000000000000e+00 -9.9987784788200273e+01 3.6647242132320162e-01 -1.3925126889175084e+02 0 0 0
2522 73 2 0.0000000000000000e+00 -6.1778245918620129e+01 -2.8883256540214365e+01 -1.3285711028088252e+02 0 0 0
2523 73 2 0.0000000000000000e+00 -6.7426998999542889e+01 -2.2153613736428898e+01 -1.2673907858824879e+02 0 0 0
6263 179 4 0.0000000000000000e+00 -1.0250257954514409e+02 -5.8302694716571928e+00 -1.2902108395131771e+02 0 0 0
1813 52 2 0.0000000000000000e+00 -2.9522800683419067e+01 -1.3302399426403727e-01 -1.2501467227936025e+02 0 0 0
6295 180 4 0.0000000000000000e+00 -1.1055707545171883e+02 1.3615438108006616e+01 -1.3498016700434593e+02 0 0 0
6296 180 4 0.0000000000000000e+00 -1.0984417772931045e+02 1.8700553018273460e+01 -1.2585247699402076e+02 0 0 0
6294 180 4 0.0000000000000000e+00 -1.0142428483434746e+02 1.7362537140733330e+01 -1.3029650385834347e+02 0 0 0
6293 180 4 0.0000000000000000e+00 -1.0098331738598306e+02 2.4248471776256046e+01 -1.2280395313950443e+02 0 0 0
1810 52 1 0.0000000000000000e+00 -4.5384600159375765e+01 2.3747275046727381e+01 -1.2632911206745536e+02 0 0 0
5426 156 4 0.0000000000000000e+00 -3.4443852092243603e+01 -7.5814309662292260e+01 -1.1462672545253241e+02 0 0 0
6498 186 4 0.0000000000000000e+00 -3.5720696397225851e+01 -4.4804949050071293e+01 -1.1763116740370113e+02 0 0 0
6499 186 4 0.0000000000000000e+00 -2.7452028202655114e+01 -4.9449874743698352e+01 -1.1451170395189317e+02 0 0 0
6496 186 4 0.0000000000000000e+00 -4.7179240318554285e+01 -2.8504401375976517e+01 -1.1463544866293516e+02 0 0 0
6497 186 4 0.0000000000000000e+00 -4.3358256291445898e+01 -3.8193232526413006e+01 -1.1725311067750916e+02 0 0 0
2525 73 2 0.0000000000000000e+00 -7.9676545293151776e+01 -1.2300601465554841e+01 -1.1531792316767086e+02 0 0 0
2524 73 1 0.0000000000000000e+00 -7.2920515002959235e+01 -1.8099769087937290e+01 -1.1999098747554243e+02 0 0 0
6494 186 4 0.0000000000000000e+00 -6.2635033662507951e+01 -1.9605023017750263e+01 -1.1623430912102768e+02 0 0 0
6495 186 4 0.0000000000000000e+00 -5.5327642496713452e+01 -2.4070642808569019e+01 -1.1093785870664671e+02 0 0 0
2929 84 2 0.0000000000000000e+00 -1.1255146122179137e+02 -3.7792784067146150e+00 -1.1522211224172321e+02 0 0 0
6262 179 3 0.0000000000000000e+00 -9.9904189549579073e+01 -6.0529539965657113e+00 -1.1943699559105296e+02 0 0 0
6261 179 4 0.0000000000000000e+00 -9.5429319612208687e+01 -2.5887321860732979e+00 -1.1109862380238906e+02 0 0 0
6492 186 4 0.0000000000000000e+00 -7.1280828431932491e+01 -4.2718892071604548e+00 -1.2197335267387803e+02 0 0 0
6491 186 4 0.0000000000000000e+00 -7.7162365421975807e+01 -6.5701944441323201e-01 -1.1529063155580418e+02 0 0 0
6493 186 3 0.0000000000000000e+00 -6.4379003220447586e+01 -1.0225529855795724e+01 -1.1887802034461269e+02 0 0 0
2931 84 2 0.0000000000000000e+00 -1.0887905842176656e+02 5.6313468100149127e+00 -1.1082161980555655e+02 0 0 0
2930 84 1 0.0000000000000000e+00 -1.0771948241092539e+02 2.0839167165247909e+00 -1.2035818283130848e+02 0 0 0
3307 95 2 0.0000000000000000e+00 -9.7123435605048030e+01 1.3409342210055700e+01 -1.1942578128508406e+02 0 0 0
3308 95 1 0.0000000000000000e+00 -1.0365812950474648e+02 1.5152752630904367e+01 -1.1217822723522733e+02 0 0 0
3306 95 2 0.0000000000000000e+00 -8.7671912831081656e+01 1.2537375845609564e+01 -1.1841160428243846e+02 0 0 0
6489 186 4 0.0000000000000000e+00 -9.0914541434265701e+01 9.0831458431867791e+00 -1.0920689610799266e+02 0 0 0
1799 52 2 0.0000000000000000e+00 -7.2921091772925806e+01 1.1078952906077804e+01 -1.1294671108103995e+02 0 0 0
1800 52 2 0.0000000000000000e+00 -6.4943317066308609e+01 5.4965038356950533e+00 -1.1287969377254477e+02 0 0 0
1801 52 2 0.0000000000000000e+00 -5.5651068007623046e+01 3.1278609911570965e+00 -1.1434936536986606e+02 0 0 0
1812 52 2 0.0000000000000000e+00 -3.3829788995507052e+01 8.5052766236033381e+00 -1.2226241916364349e+02 0 0 0
6300 180 4 0.0000000000000000e+00 -1.3990740405015833e+02 2.4556483432650605e+01 -1.0930969429623339e+02 0 0 0
6299 180 4 0.0000000000000000e+00 -1.2987427238118843e+02 2.4849010410168130e+01 -1.0934830333494371e+02 0 0 0
6298 180 4 0.0000000000000000e+00 -1.2095253426208599e+02 2.1207946719286834e+01 -1.1298060010267767e+02 0 0 0
6297 180 3 0.0000000000000000e+00 -1.1174137765735688e+02 2.1715560119740246e+01 -1.1625610938094378e+02 0 0 0
3305 95 2 0.0000000000000000e+00 -8.8879570353506480e+01 2.2452872864146705e+01 -1.1810395504968361e+02 0 0 0
1811 52 2 0.0000000000000000e+00 -4.0622298156014921e+01 1.6288619951611036e+01 -1.2262814438032751e+02 0 0 0
583 17 2 0.0000000000000000e+00 -4.2249679968035451e+01 2.2801490342290311e+01 -1.1266940410966446e+02 0 0 0
584 17 2 0.0000000000000000e+00 -3.4722097389957945e+01 1.6778385138502838e+01 -1.1243799445585924e+02 0 0 0
5427 156 4 0.0000000000000000e+00 -3.5271869278672568e+01 -8.2058473576891132e+01 -1.0686979982725175e+02 0 0 0
5428 156 4 0.0000000000000000e+00 -3.2508505794075390e+01 -8.7888580530830978e+01 -9.9447194497937105e+01 0 0 0
2804 81 1 0.0000000000000000e+00 -8.5702167582069023e+01 -7.6528562918361260e+01 -9.6943862538577960e+01 0 0 0
2803 81 2 0.0000000000000000e+00 -8.2513879221705523e+01 -6.7057496513065473e+01 -9.8549969291424034e+01 0 0 0
2090 60 1 0.0000000000000000e+00 -2.4974507275117965e+01 -7.4693793715640297e+01 -9.7440385413360076e+01 0 0 0
2089 60 2 0.0000000000000000e+00 -3.4585793569254214e+01 -7.2370648875453981e+01 -9.6812962563621909e+01 0 0 0
2801 81 2 0.0000000000000000e+00 -9.4064025472243216e+01 -5.2471166856932044e+01 -1.0100699090340308e+02 0 0 0
2802 81 2 0.0000000000000000e+00 -8.8551043480519724e+01 -5.9711664503489985e+01 -9.7209459897358670e+01 0 0 0
2088 60 2 0.0000000000000000e+00 -4.0049063297702098e+01 -6.5054126858894378e+01 -9.8496591106630675e+01 0 0 0
2549 73 2 0.0000000000000000e+00 -3.9830707997627336e+01 -5.2519113543924938e+01 -1.0611132540463350e+02 0 0 0
2087 60 2 0.0000000000000000e+00 -4.3846969478271397e+01 -5.6359985413522232e+01 -9.7232965334919712e+01 0 0 0
2550 73 2 0.0000000000000000e+00 -3.2484505602631636e+01 -5.8927271311360371e+01 -1.0397988353255015e+02 0 0 0
2547 73 2 0.0000000000000000e+00 -5.7114955736732178e+01 -4.2247928683953951e+01 -1.0299384567824400e+02 0 0 0
2548 73 2 0.0000000000000000e+00 -4.8018430707927969e+01 -4.7348451024036066e+01 -1.0327064906385000e+02 0 0 0
2546 73 2 0.0000000000000000e+00 -6.4363360502156141e+01 -3.7251129647005008e+01 -9.7039304576467927e+01 0 0 0
4752 136 4 0.0000000000000000e+00 -4.8113414816817759e+01 -3.6065164156118080e+01 -9.8675484785100878e+01 0 0 0
2627 76 2 0.0000000000000000e+00 -3.2263113433196288e+01 -3.6872846829835879e+01 -9.9136985834291607e+01 0 0 0
2626 76 2 0.0000000000000000e+00 -3.1044031543734860e+01 -3.0113161988543990e+01 -1.0595747190676195e+02 0 0 0
933 27 2 0.0000000000000000e+00 -1.0711356607133685e+02 -1.7023259376595284e+01 -9.8392108295001563e+01 0 0 0
932 27 2 0.0000000000000000e+00 -9.8567618359296461e+01 -1.8827874045837731e+01 -1.0307377534005190e+02 0 0 0
2526 73 2 0.0000000000000000e+00 -8.4527660089334120e+01 -1.4678165154791859e+01 -1.0702821683515948e+02 0 0 0
2527 73 2 0.0000000000000000e+00 -8.5824224131886623e+01 -1.8117343680385183e+01 -9.7452361534100490e+01 0 0 0
6257 179 4 0.0000000000000000e+00 -7.8444826032683096e+01 -2.3424010839858056e+01 -1.0222742908219210e+02 0 0 0
6258 179 4 0.0000000000000000e+00 -7.4900201258994429e+01 -1.4353413289010124e+01 -1.0399830108836450e+02 0 0 0
5532 159 4 0.0000000000000000e+00 -5.2173559838303206e+01 -1.4047636522894598e+01 -1.0743994877656108e+02 0 0 0
4062 117 4 0.0000000000000000e+00 -5.3261230190857106e+01 -1.5377909953867295e+01 -9.7356196808636781e+01 0 0 0
2071 60 2 0.0000000000000000e+00 -6.3993362072266997e+01 -1.5374223365227818e+01 -9.7185140239602632e+01 0 0 0
4061 117 4 0.0000000000000000e+00 -4.7515746280806205e+01 -2.1571849447692500e+01 -1.0335214882486841e+02 0 0 0
5533 159 4 0.0000000000000000e+00 -4.2569417333749783e+01 -1.2827420967231921e+01 -1.0513405737480801e+02 0 0 0
5534 159 3 0.0000000000000000e+00 -3.8362361076336029e+01 -1.3287448900686483e+01 -9.6403923512059947e+01 0 0 0
5535 159 4 0.0000000000000000e+00 -3.0908282735934641e+01 -1.1831827267337768e+01 -1.0266050278020823e+02 0 0 0
2928 84 2 0.0000000000000000e+00 -1.1506310347359944e+02 -7.2836668298534644e+00 -1.0606937276196653e+02 0 0 0
2927 84 2 0.0000000000000000e+00 -1.1796337415144050e+02 -9.5279674815660247e+00 -9.7084703493769453e+01 0 0 0
6260 179 4 0.0000000000000000e+00 -8.7958713263153712e+01 -3.3676869573848860e+00 -1.0385573808974473e+02 0 0 0
6259 179 4 0.0000000000000000e+00 -7.8338473508929098e+01 -4.7372461048485555e+00 -1.0599209778497573e+02 0 0 0
5531 159 4 0.0000000000000000e+00 -5.8813573569795778e+01 -8.5743192530454362e+00 -1.0292554154603725e+02 0 0 0
1802 52 2 0.0000000000000000e+00 -5.1878164455794710e+01 -1.7572174869226951e+00 -1.0614949596663769e+02 0 0 0
1803 52 1 0.0000000000000000e+00 -4.1969313281006450e+01 -3.9431558145314014e+00 -1.0156815860337585e+02 0 0 0
5536 159 4 0.0000000000000000e+00 -3.0444261872560464e+01 -2.7399545896132795e+00 -1.0683417863019869e+02 0 0 0
5537 159 4 0.0000000000000000e+00 -3.2848509372752964e+01 -4.1083851942803813e+00 -9.6717235075141332e+01 0 0 0
2932 84 2 0.0000000000000000e+00 -1.1106640907113724e+02 4.3875617056787153e+00 -1.0126900292410166e+02 0 0 0
6488 186 4 0.0000000000000000e+00 -9.6242792000628938e+01 1.4910903419665081e+01 -1.0298560875903109e+02 0 0 0
6490 186 4 0.0000000000000000e+00 -8.2355522811819057e+01 3.9634933235544763e+00 -1.0870024868245230e+02 0 0 0
5910 169 4 0.0000000000000000e+00 -8.4957169635889500e+01 9.6591825609863164e+00 -9.5984636475947482e+01 0 0 0
1798 52 2 0.0000000000000000e+00 -7.5198144919410112e+01 1.0704944302205050e+01 -1.0303056438824645e+02 0 0 0
733 21 2 0.0000000000000000e+00 -6.1912228764732411e+01 1.1133050193206920e+01 -1.0308103610668637e+02 0 0 0
1804 52 2 0.0000000000000000e+00 -4.0386590986357071e+01 4.7191144787231316e+00 -9.6986907445077065e+01 0 0 0
1805 52 2 0.0000000000000000e+00 -3.7555563237376610e+01 1.4835730111375291e+01 -9.7064405509812346e+01 0 0 0
3309 95 2 0.0000000000000000e+00 -1.1049442161125815e+02 1.5659337053502046e+01 -1.0471420048516674e+02 0 0 0
3310 95 2 0.0000000000000000e+00 -1.1475062851585108e+02 1.9617661020432713e+01 -9.6918511456461886e+01 0 0 0
5908 169 4 0.0000000000000000e+00 -9.1829374380780521e+01 2.4064910447834606e+01 -1.0751696142568910e+02 0 0 0
6487 186 4 0.0000000000000000e+00 -9.6921350315935484e+01 2.3305606102556400e+01 -9.8239889235418246e+01 0 0 0
5909 169 4 0.0000000000000000e+00 -8.6645620280690849e+01 1.7775553895117493e+01 -1.0187899355044406e+02 0 0 0
5905 169 3 0.0000000000000000e+00 -6.9231557159555422e+01 2.7658492571913925e+01 -1.0478372632232028e+02 0 0 0
5904 169 4 0.0000000000000000e+00 -6.7039637019984951e+01 1.9983906277937855e+01 -9.8047489862762859e+01 0 0 0
732 21 1 0.0000000000000000e+00 -5.9861439439873060e+01 2.1055207890929221e+01 -1.0554807340884702e+02 0 0 0
581 17 2 0.0000000000000000e+00 -4.9808716640824763e+01 1.9307602160545756e+01 -9.7437878847470017e+01 0 0 0
582 17 2 0.0000000000000000e+00 -4.6050312866871209e+01 1.6121019384993382e+01 -1.0582597556627509e+02 0 0 0
1806 52 2 0.0000000000000000e+00 -4.0298631647643319e+01 2.2317846767700829e+01 -1.0269161613790710e+02 0 0 0
585 17 1 0.0000000000000000e+00 -2.7818910333357859e+01 2.1146673021910310e+01 -1.0673441771065990e+02 0 0 0
6176 177 4 0.0000000000000000e+00 -2.4682160293243776e+01 1.9358414898094914e+01 -9.8430639424811687e+01 0 0 0
6177 177 4 0.0000000000000000e+00 -3.0487830497270252e+01 2.7739406063821288e+01 -9.6488892991205446e+01 0 0 0
6231 179 4 0.0000000000000000e+00 -8.0503174385841831e+01 -1.0434228548119872e+02 -9.3140380486403075e+01 0 0 0
6232 179 4 0.0000000000000000e+00 -8.1959320675969579e+01 -9.5375299219597409e+01 -8.9179839668252512e+01 0 0 0
2806 81 2 0.0000000000000000e+00 -9.6838133800520097e+01 -8.9798002453857222e+01 -8.6989252101896597e+01 0 0 0
2805 81 2 0.0000000000000000e+00 -9.1426818330717737e+01 -8.3528319291443708e+01 -9.2797583381393750e+01 0 0 0
6233 179 4 0.0000000000000000e+00 -8.1028274825384059e+01 -8.5580372925934711e+01 -9.1159421076002516e+01 0 0 0
6511 187 4 0.0000000000000000e+00 -4.4448789656413979e+01 -8.0901426975760685e+01 -9.3973391069406702e+01 0 0 0
5429 156 3 0.0000000000000000e+00 -2.3801438148530522e+01 -8.5732731001192747e+01 -9.5065103590690399e+01 0 0 0
6234 179 3 0.0000000000000000e+00 -8.5394126674488604e+01 -7.8487382469147050e+01 -8.6036204493137902e+01 0 0 0
6235 179 4 0.0000000000000000e+00 -9.0499078045583502e+01 -7.1086738301651735e+01 -8.2318711865628885e+01 0 0 0
6512 187 4 0.0000000000000000e+00 -4.8169860462934437e+01 -7.2970332428632474e+01 -8.9054705312338243e+01 0 0 0
4747 136 4 0.0000000000000000e+00 -2.8760944020321350e+01 -7.6182788703197602e+01 -8.6212861599655398e+01 0 0 0
4748 136 4 0.0000000000000000e+00 -3.3371121997662335e+01 -6.7182823673851416e+01 -8.5475069696953113e+01 0 0 0
5884 169 3 0.0000000000000000e+00 -1.0445520339119037e+02 -5.3697830560524160e+01 -8.3984218437725204e+01 0 0 0
5883 169 4 0.0000000000000000e+00 -1.0176807681455247e+02 -6.2670935004846989e+01 -8.7103020469958977e+01 0 0 0
2543 73 2 0.0000000000000000e+00 -7.5791767341597932e+01 -5.9721029612585696e+01 -8.8507050070547990e+01 0 0 0
2085 60 2 0.0000000000000000e+00 -5.5263267023950640e+01 -6.0418566612246011e+01 -8.7413146682637091e+01 0 0 0
2086 60 2 0.0000000000000000e+00 -4.7496859381155723e+01 -5.3424531540108276e+01 -8.8034232807433995e+01 0 0 0
4749 136 4 0.0000000000000000e+00 -3.3288417627697704e+01 -5.8488104074794919e+01 -9.0415005272274271e+01 0 0 0
4744 136 4 0.0000000000000000e+00 -2.4556245064497368e+01 -6.2350448904815536e+01 -8.9133702660891402e+01 0 0 0
5885 169 4 0.0000000000000000e+00 -1.0415257666358005e+02 -4.3892707732241341e+01 -8.3866467724510386e+01 0 0 0
2544 73 2 0.0000000000000000e+00 -7.0975812386497680e+01 -5.0865998390403533e+01 -9.0272995718087245e+01 0 0 0
2545 73 1 0.0000000000000000e+00 -6.8911434168661785e+01 -4.0936760855046728e+01 -8.8853344891480177e+01 0 0 0
6516 187 4 0.0000000000000000e+00 -5.9544153016763424e+01 -4.8104913734475936e+01 -8.4058560091940890e+01 0 0 0
6517 187 4 0.0000000000000000e+00 -5.1147233320350360e+01 -4.2545350922400964e+01 -8.6978835040230194e+01 0 0 0
4751 136 4 0.0000000000000000e+00 -4.1924067807540879e+01 -4.3230383328744907e+01 -9.5306741173646898e+01 0 0 0
4750 136 3 0.0000000000000000e+00 -3.5424301898302616e+01 -5.0518208884139952e+01 -9.5627616329157547e+01 0 0 0
2628 76 2 0.0000000000000000e+00 -3.3699905860977559e+01 -3.9113669061006874e+01 -8.8932494683246333e+01 0 0 0
2629 76 1 0.0000000000000000e+00 -3.0463953485727423e+01 -4.7748961822757138e+01 -8.5505846805254492e+01 0 0 0
3745 107 4 0.0000000000000000e+00 -1.2483434308180971e+02 -3.6274585858922599e+01 -9.0051918594971610e+01 0 0 0
2529 73 2 0.0000000000000000e+00 -8.7609392505375311e+01 -3.3282292469080410e+01 -8.4499196627541778e+01 0 0 0
2528 73 2 0.0000000000000000e+00 -8.8346874200505368e+01 -2.6098768766813009e+01 -9.1502186853221403e+01 0 0 0
6255 179 3 0.0000000000000000e+00 -7.7801194665389630e+01 -3.4719863051415743e+01 -8.6350864167567394e+01 0 0 0
6256 179 4 0.0000000000000000e+00 -7.6671643230571974e+01 -2.6792255500951622e+01 -9.2949780563348511e+01 0 0 0
4754 136 4 0.0000000000000000e+00 -6.3579704524371138e+01 -2.6817882462650406e+01 -8.9482310734570433e+01 0 0 0
4753 136 4 0.0000000000000000e+00 -5.4912753144038817e+01 -3.0072003398221270e+01 -9.3864255007897256e+01 0 0 0
6518 187 4 0.0000000000000000e+00 -4.3588124094470203e+01 -3.6040894819297051e+01 -8.6440747344961665e+01 0 0 0
6519 187 4 0.0000000000000000e+00 -3.7888966231204364e+01 -2.7262768049911948e+01 -8.4848773733834363e+01 0 0 0
6476 186 4 0.0000000000000000e+00 -1.3295273709110737e+02 -1.3510788468435477e+01 -9.1375970865673011e+01 0 0 0
2198 63 2 0.0000000000000000e+00 -1.4561374203318803e+02 -1.2662308358306214e+01 -8.2720458243094996e+01 0 0 0
934 27 2 0.0000000000000000e+00 -1.1138577900182591e+02 -1.9158934129828690e+01 -8.9177086185188955e+01 0 0 0
931 27 2 0.0000000000000000e+00 -9.6387784546106985e+01 -2.0497181050484610e+01 -9.3775950340202385e+01 0 0 0
930 27 2 0.0000000000000000e+00 -9.2911956667448976e+01 -1.9019627692190031e+01 -8.4590196155666163e+01 0 0 0
2069 60 1 0.0000000000000000e+00 -7.8511742473073141e+01 -1.3317420126687036e+01 -8.3152514654273432e+01 0 0 0
2070 60 2 0.0000000000000000e+00 -7.2629001999928846e+01 -1.3884163039555084e+01 -9.0904262556640731e+01 0 0 0
2072 60 2 0.0000000000000000e+00 -5.8570645078174564e+01 -1.6331673456881415e+01 -8.9205001791024458e+01 0 0 0
2073 60 2 0.0000000000000000e+00 -5.1269510790173669e+01 -1.8596706687635013e+01 -8.2709103408504063e+01 0 0 0
2908 84 2 0.0000000000000000e+00 -4.2726539224384837e+01 -2.3555740069408390e+01 -9.3611630150640678e+01 0 0 0
2909 84 1 0.0000000000000000e+00 -4.1750789782094223e+01 -1.4777791686002821e+01 -8.7822156338173158e+01 0 0 0
2906 84 2 0.0000000000000000e+00 -2.4141434831031034e+01 -1.9882651916885990e+01 -9.3490138009268165e+01 0 0 0
2907 84 2 0.0000000000000000e+00 -3.2918443985264311e+01 -2.4488424348521054e+01 -9.3757980905307491e+01 0 0 0
5539 159 4 0.0000000000000000e+00 -3.1212846579781104e+01 -1.5484340871201683e+01 -8.3313373661328839e+01 0 0 0
6477 186 4 0.0000000000000000e+00 -1.2642284138550897e+02 -5.9750312860136665e+00 -9.0820551880819053e+01 0 0 0
6478 186 4 0.0000000000000000e+00 -1.2872863832190743e+02 1.1382745610270375e+00 -8.3521181424352719e+01 0 0 0
2926 84 2 0.0000000000000000e+00 -1.1224303125626089e+02 -3.8463565354606053e+00 -9.2197862359703947e+01 0 0 0
5911 169 4 0.0000000000000000e+00 -8.3807463797954014e+01 1.2338666883607257e+00 -9.0518149643113858e+01 0 0 0
5912 169 3 0.0000000000000000e+00 -7.7963107949067606e+01 -1.9480789837670309e+00 -8.3225607606534837e+01 0 0 0
735 21 2 0.0000000000000000e+00 -6.5446511530084535e+01 -3.7906787345351836e+00 -8.9433851209424958e+01 0 0 0
4063 117 4 0.0000000000000000e+00 -5.4557633753964645e+01 -6.1692668058220557e+00 -9.4872673999131976e+01 0 0 0
2911 84 2 0.0000000000000000e+00 -5.0219409136987039e+01 -6.1004588492562508e+00 -8.6126485147485127e+01 0 0 0
2910 84 2 0.0000000000000000e+00 -4.0730881699291345e+01 -5.3386740906462187e+00 -9.0569679505849507e+01 0 0 0
5538 159 4 0.0000000000000000e+00 -2.8747003947551402e+01 -7.5507736777078627e+00 -8.8182624818754263e+01 0 0 0
2925 84 2 0.0000000000000000e+00 -1.0556066970975233e+02 2.0955014754533843e+00 -8.7968640513851810e+01 0 0 0
2933 84 2 0.0000000000000000e+00 -1.1592066808932286e+02 6.0641493362737950e+00 -9.2663402221528202e+01 0 0 0
2934 84 2 0.0000000000000000e+00 -1.1387613170578608e+02 6.3571276438914195e+00 -8.2894823968329177e+01 0 0 0
2066 60 2 0.0000000000000000e+00 -9.3058115596553719e+01 6.2770426484814283e+00 -8.8892695805048632e+01 0 0 0
3727 107 4 0.0000000000000000e+00 -8.5297483487035947e+01 1.2595313645967718e+01 -8.4413389761872040e+01 0 0 0
1797 52 2 0.0000000000000000e+00 -7.3644967540234731e+01 8.3689051751387922e+00 -9.3366892359846929e+01 0 0 0
1796 52 1 0.0000000000000000e+00 -7.2579956100551755e+01 1.1339071994494830e+01 -8.3325552279785839e+01 0 0 0
734 21 2 0.0000000000000000e+00 -6.4379014625843084e+01 3.7257097366000602e+00 -9.5704441555455446e+01 0 0 0
4064 117 3 0.0000000000000000e+00 -5.2549013586281689e+01 2.2821740002742255e+00 -9.1807188365912637e+01 0 0 0
2062 59 1 0.0000000000000000e+00 -6.0146311809643187e+01 6.8680505815089887e+00 -8.5237003537258303e+01 0 0 0
2061 59 2 0.0000000000000000e+00 -5.4733731002282269e+01 1.5404554916544495e+01 -8.5607755989404069e+01 0 0 0
4065 117 4 0.0000000000000000e+00 -4.6743164517051817e+01 8.9426086681230537e+00 -8.7445253960079810e+01 0 0 0
4066 117 4 0.0000000000000000e+00 -3.7345697946210798e+01 1.2248076365228394e+01 -8.6250878842054490e+01 0 0 0
1718 50 2 0.0000000000000000e+00 -1.1007499111301973e+02 2.3162182794014321e+01 -8.3742973694443251e+01 0 0 0
3311 95 2 0.0000000000000000e+00 -1.1638544523083462e+02 2.9077652702674023e+01 -9.4081273597096512e+01 0 0 0
1719 50 1 0.0000000000000000e+00 -1.0042079936030548e+02 2.1399988665455279e+01 -8.4839186206914974e+01 0 0 0
3726 107 4 0.0000000000000000e+00 -8.7102347505874576e+01 2.2294327040716908e+01 -8.3791564874865543e+01 0 0 0
6338 182 4 0.0000000000000000e+00 -8.1106726041799064e+01 2.6362203925260086e+01 -9.4028281299970033e+01 0 0 0
6339 182 3 0.0000000000000000e+00 -7.5878232706517565e+01 2.0594494429553226e+01 -8.7494716082777032e+01 0 0 0
5903 169 4 0.0000000000000000e+00 -6.6392500337375949e+01 1.6309678456070571e+01 -8.9132226713714942e+01 0 0 0
580 17 2 0.0000000000000000e+00 -4.7994686718742152e+01 2.6269576745930635e+01 -8.9632250530720839e+01 0 0 0
4067 117 4 0.0000000000000000e+00 -3.0106533468909472e+01 1.9536097576286178e+01 -8.5061497624812191e+01 0 0 0
6335 181 4 0.0000000000000000e+00 -8.0588643049989514e+01 -1.1192373301759814e+02 -7.2961478269210247e+01 0 0 0
2808 81 2 0.0000000000000000e+00 -1.0983725316121102e+02 -8.5465955829382310e+01 -7.7392422595373986e+01 0 0 0
2807 81 2 0.0000000000000000e+00 -1.0392665454774654e+02 -9.2262906645457846e+01 -8.0349304964914680e+01 0 0 0
2809 81 2 0.0000000000000000e+00 -1.1003902276174419e+02 -7.7640405451301788e+01 -7.0719755350331340e+01 0 0 0
2810 81 2 0.0000000000000000e+00 -1.1228924424926794e+02 -6.7718108284555896e+01 -7.1115974828677452e+01 0 0 0
5882 169 4 0.0000000000000000e+00 -1.0321735599336317e+02 -6.9187387867447526e+01 -7.9689620094708815e+01 0 0 0
5881 169 4 0.0000000000000000e+00 -9.7537669973791580e+01 -7.5813209900682438e+01 -7.4579387441716563e+01 0 0 0
2541 73 2 0.0000000000000000e+00 -7.2772087539627435e+01 -6.6600735972376171e+01 -7.5097873417243932e+01 0 0 0
2084 60 2 0.0000000000000000e+00 -6.1319921505261547e+01 -6.6510971428743815e+01 -8.1419109656602231e+01 0 0 0
2083 60 1 0.0000000000000000e+00 -6.2389357201650846e+01 -6.5859192656112967e+01 -7.1602159625666445e+01 0 0 0
6316 181 4 0.0000000000000000e+00 -5.0078954621522172e+01 -7.8703095479050816e+01 -7.3020552686139027e+01 0 0 0
6513 187 4 0.0000000000000000e+00 -4.8091979736621859e+01 -6.7428629266427180e+01 -8.1129103549047144e+01 0 0 0
6315 181 4 0.0000000000000000e+00 -4.5623789835791897e+01 -7.0449626006618487e+01 -7.0738781684110663e+01 0 0 0
2811 81 1 0.0000000000000000e+00 -1.1121543518961754e+02 -5.8855693551962183e+01 -7.6191842940345765e+01 0 0 0
6236 179 4 0.0000000000000000e+00 -8.9268607044828940e+01 -6.1648714118772126e+01 -7.8689856939659734e+01 0 0 0
6237 179 4 0.0000000000000000e+00 -8.5008142657589971e+01 -5.9644599746446048e+01 -7.0288326707614544e+01 0 0 0
2542 73 2 0.0000000000000000e+00 -7.9387308687881415e+01 -6.1016607391333650e+01 -7.9443355663769992e+01 0 0 0
6514 187 3 0.0000000000000000e+00 -5.3975523199934244e+01 -6.0487373447633431e+01 -7.6664072688497356e+01 0 0 0
6515 187 4 0.0000000000000000e+00 -6.2779776107596376e+01 -5.6336900425049038e+01 -7.9123708362813929e+01 0 0 0
6314 181 4 0.0000000000000000e+00 -4.3666111414928650e+01 -6.0246081006302788e+01 -7.0314880817475355e+01 0 0 0
2631 76 2 0.0000000000000000e+00 -2.4126367715846854e+01 -6.5390408142681181e+01 -7.8381810509778475e+01 0 0 0
2630 76 2 0.0000000000000000e+00 -2.7907324587770205e+01 -5.7213033841802869e+01 -8.1469533060538438e+01 0 0 0
1632 47 2 0.0000000000000000e+00 -2.7357665436216895e+01 -5.5487056123790680e+01 -6.9930607328019150e+01 0 0 0
2812 81 2 0.0000000000000000e+00 -1.0664524955548330e+02 -5.0670553768738351e+01 -7.3334809941739707e+01 0 0 0
2813 81 2 0.0000000000000000e+00 -9.6649320489228728e+01 -5.0423275707809140e+01 -7.4109471532805799e+01 0 0 0
2531 73 1 0.0000000000000000e+00 -9.6134559085074514e+01 -4.0228184192641024e+01 -7.0429433112704771e+01 0 0 0
6254 179 4 0.0000000000000000e+00 -7.8654463531148053e+01 -4.2740226730965453e+01 -8.0010595288352818e+01 0 0 0
2814 81 2 0.0000000000000000e+00 -8.7682794575000429e+01 -4.8214378100643088e+01 -7.6920210909218426e+01 0 0 0
2815 81 2 0.0000000000000000e+00 -8.0349179140980652e+01 -4.6947781784728754e+01 -6.9884331143442964e+01 0 0 0
6253 179 4 0.0000000000000000e+00 -7.2100243750756874e+01 -4.4923782970137552e+01 -7.2895620859604335e+01 0 0 0
5775 165 4 0.0000000000000000e+00 -5.4307152947097691e+01 -4.3710703951509807e+01 -7.2704547169550978e+01 0 0 0
6313 181 4 0.0000000000000000e+00 -4.6880601778486145e+01 -5.0738830680521055e+01 -6.9184110559131227e+01 0 0 0
3744 107 4 0.0000000000000000e+00 -1.2130723293429645e+02 -3.3762811985339077e+01 -8.0976565736803721e+01 0 0 0
938 27 2 0.0000000000000000e+00 -1.2678064982700461e+02 -2.7625244350829199e+01 -6.9711306092184046e+01 0 0 0
3743 107 4 0.0000000000000000e+00 -1.1431152078051808e+02 -3.3175132513637948e+01 -7.3838820410644658e+01 0 0 0
5886 169 4 0.0000000000000000e+00 -1.0633941057067925e+02 -3.3873922128737462e+01 -8.1682731744194527e+01 0 0 0
3742 107 3 0.0000000000000000e+00 -1.0547861136198328e+02 -3.3980947145311085e+01 -7.0717583801689031e+01 0 0 0
2530 73 2 0.0000000000000000e+00 -9.5644649621189927e+01 -3.4326187881171315e+01 -7.8443194653010451e+01 0 0 0
5887 169 4 0.0000000000000000e+00 -1.0285942748722732e+02 -2.5899145781150558e+01 -7.7464552652060732e+01 0 0 0
4755 136 4 0.0000000000000000e+00 -6.8843029256759380e+01 -2.7405452677351168e+01 -8.1199841170351291e+01 0 0 0
4756 136 4 0.0000000000000000e+00 -7.7196652643443031e+01 -2.7245041569965842e+01 -7.5710685287613799e+01 0 0 0
5544 159 4 0.0000000000000000e+00 -6.1831252332747695e+01 -3.4416796213841110e+01 -7.3963793866166114e+01 0 0 0
5543 159 4 0.0000000000000000e+00 -5.3253405848429182e+01 -3.3061195936910806e+01 -7.8945656769241907e+01 0 0 0
5542 159 4 0.0000000000000000e+00 -4.4286545734229840e+01 -3.0582083125128815e+01 -7.4431904243861482e+01 0 0 0
2240 64 2 0.0000000000000000e+00 -3.4921708202333186e+01 -3.6847251752689225e+01 -7.9074059871643883e+01 0 0 0
2239 64 2 0.0000000000000000e+00 -2.5329630673981413e+01 -3.8374981655066968e+01 -8.1859225994941312e+01 0 0 0
5541 159 3 0.0000000000000000e+00 -3.6209564854652996e+01 -2.6794280254286690e+01 -7.0165846315592660e+01 0 0 0
2199 63 2 0.0000000000000000e+00 -1.4005781385876509e+02 -1.2260437068321641e+01 -7.4642080945285372e+01 0 0 0
935 27 1 0.0000000000000000e+00 -1.1231195292405293e+02 -1.4882179202061870e+01 -8.0065918670208262e+01 0 0 0
936 27 2 0.0000000000000000e+00 -1.1075114403555793e+02 -1.7450499127619651e+01 -6.9979057666483087e+01 0 0 0
5888 169 4 0.0000000000000000e+00 -1.0074470996414678e+02 -1.6836576612716932e+01 -7.5060998084801824e+01 0 0 0
929 27 2 0.0000000000000000e+00 -9.2062705669771802e+01 -2.3102917245890655e+01 -7.4989641746952998e+01 0 0 0
5915 169 4 0.0000000000000000e+00 -6.5583717007107765e+01 -1.7861913762023768e+01 -6.9320716412149380e+01 0 0 0
2065 59 2 0.0000000000000000e+00 -6.4100271116080179e+01 -1.7294811785818499e+01 -8.1488249046529276e+01 0 0 0
2074 60 2 0.0000000000000000e+00 -4.8589868875573309e+01 -1.8937476930331794e+01 -7.3018322572946360e+01 0 0 0
6520 187 4 0.0000000000000000e+00 -4.1303971073968974e+01 -1.9988130396428886e+01 -7.9088589908752240e+01 0 0 0
5540 159 4 0.0000000000000000e+00 -3.0683332129333134e+01 -2.3331041134194365e+01 -7.6879286146844464e+01 0 0 0
2197 63 2 0.0000000000000000e+00 -1.4929669062158570e+02 -3.6925932673316115e+00 -7.9611898574684872e+01 0 0 0
4771 137 3 0.0000000000000000e+00 -1.1992550772877070e+02 -8.0392696786256792e+00 -7.6022540802189724e+01 0 0 0
4772 137 4 0.0000000000000000e+00 -1.1688356766714777e+02 1.3602156296556294e+00 -7.3479232738913794e+01 0 0 0
2067 60 2 0.0000000000000000e+00 -9.3138864777845498e+01 -4.6071912727961484e-01 -8.1976708780486419e+01 0 0 0
5889 169 4 0.0000000000000000e+00 -1.0516116057200831e+02 -8.0716887274209643e+00 -7.2419113828377320e+01 0 0 0
2068 60 2 0.0000000000000000e+00 -8.6709593298051644e+01 -8.1701382533656552e+00 -8.0908349973588528e+01 0 0 0
3729 107 4 0.0000000000000000e+00 -8.6465694581592771e+01 7.4556613714407166e-02 -6.9972664791109750e+01 0 0 0
5913 169 4 0.0000000000000000e+00 -7.7309906162635372e+01 -4.3553101653073520e+00 -7.3158114924368419e+01 0 0 0
2064 59 2 0.0000000000000000e+00 -6.8945823483530290e+01 -8.9742652539805334e+00 -7.8572804194642046e+01 0 0 0
5899 169 4 0.0000000000000000e+00 -6.4587447653012092e+01 -8.4865187221476834e-01 -6.9378177209228340e+01 0 0 0
2912 84 2 0.0000000000000000e+00 -5.6087036751257877e+01 -4.8308260959310125e+00 -7.8485129681468095e+01 0 0 0
2063 59 2 0.0000000000000000e+00 -6.4332887935968884e+01 -4.1177242671438136e-01 -7.8886052218932150e+01 0 0 0
6521 187 3 0.0000000000000000e+00 -4.3848985323085550e+01 -9.7340351647624406e+00 -7.8315566473242427e+01 0 0 0
6522 187 4 0.0000000000000000e+00 -4.2392406872835153e+01 7.4183890955508880e-01 -7.8719190984664891e+01 0 0 0
3392 97 1 0.0000000000000000e+00 -3.0218933918938131e+01 9.9793896885808098e-01 -7.5721094938729891e+01 0 0 0
2196 63 2 0.0000000000000000e+00 -1.4553949941426865e+02 2.9473275749655317e+00 -7.2587465577821561e+01 0 0 0
2195 63 1 0.0000000000000000e+00 -1.4190261298234370e+02 1.2140558739346401e+01 -7.4831073706275632e+01 0 0 0
6479 186 3 0.0000000000000000e+00 -1.3247084095247425e+02 5.5181367805541912e+00 -7.4939255565889923e+01 0 0 0