LAMMPS data file via write_data, version 5 Jun 2019, timestep = 400000000

7000 atoms
4 atom types
7291 bonds
3 bond types
6600 angles
2 angle types

-5.0000000000000000e+02 5.0000000000000000e+02 xlo xhi
-5.0000000000000000e+02 5.0000000000000000e+02 ylo yhi
-5.0000000000000000e+02 5.0000000000000000e+02 zlo zhi

Masses

1 1000
2 1000
3 1000
4 1000

Pair Coeffs # lj/cut

1 0.296 10
2 0.296 10
3 0.296 10
4 0.296 10

Angle Coeffs # cosine

1 2
2 2

Atoms # full

6194 177 4 0.0000000000000000e+00 -4.0431178512159555e+01 8.4752038431030652e+00 -1.5592838535072457e+02 0 0 0
6193 177 4 0.0000000000000000e+00 -4.0928959315005393e+01 1.6911396244906822e+01 -1.5054246160843047e+02 0 0 0
5426 156 4 0.0000000000000000e+00 -3.9596377188275248e+01 -7.0531049174039168e+01 -1.4005805097184250e+02 0 0 0
2550 73 2 0.0000000000000000e+00 -6.2490101224226230e+01 -5.5166959536011909e+01 -1.4226982491955187e+02 0 0 0
2551 73 2 0.0000000000000000e+00 -5.4346372841315961e+01 -4.9542997960664231e+01 -1.4167956055169651e+02 0 0 0
2552 73 1 0.0000000000000000e+00 -4.4984346804759959e+01 -4.8585675492204956e+01 -1.3793561937222296e+02 0 0 0
4741 136 4 0.0000000000000000e+00 -4.1061358730477934e+01 -3.8081754836900146e+01 -1.3750501749985483e+02 0 0 0
6336 182 4 0.0000000000000000e+00 -7.5663836665539932e+01 -2.8853686360938841e+01 -1.4455284438996136e+02 0 0 0
6337 182 4 0.0000000000000000e+00 -7.4624923955823348e+01 -2.0524941179494444e+01 -1.3841564200723499e+02 0 0 0
5909 169 4 0.0000000000000000e+00 -8.0549237997565257e+01 -4.6496456106728630e+00 -1.3859801026776620e+02 0 0 0
3021 87 1 0.0000000000000000e+00 -3.7814078617963709e+01 -1.2402213401121893e+01 -1.4303860119590829e+02 0 0 0
5908 169 4 0.0000000000000000e+00 -7.9710940656429500e+01 6.2126950303457535e+00 -1.3956024983897950e+02 0 0 0
3023 87 2 0.0000000000000000e+00 -4.0063829560089644e+01 4.6810306621855204e+00 -1.4323708277379686e+02 0 0 0
733 21 2 0.0000000000000000e+00 -8.6177247210311009e+01 2.3681519765646513e+01 -1.3987460536345222e+02 0 0 0
5907 169 4 0.0000000000000000e+00 -7.6862540442773224e+01 1.6249205264492637e+01 -1.3933892995329953e+02 0 0 0
1799 52 2 0.0000000000000000e+00 -5.3015610616253781e+01 1.4130224614258418e+01 -1.3929702679676782e+02 0 0 0
1800 52 2 0.0000000000000000e+00 -5.2507465637897667e+01 2.3603036164522038e+01 -1.4201587320741689e+02 0 0 0
2088 60 2 0.0000000000000000e+00 -5.2350807464318848e+01 -7.3609013051554399e+01 -1.2549076634197452e+02 0 0 0
2545 73 1 0.0000000000000000e+00 -9.6611010702789798e+01 -6.1479068129551472e+01 -1.2357765107148329e+02 0 0 0
2548 73 2 0.0000000000000000e+00 -7.3234455929535699e+01 -6.2107600344351724e+01 -1.2779469930358891e+02 0 0 0
2549 73 2 0.0000000000000000e+00 -6.7362961046279551e+01 -6.0723949744740494e+01 -1.3534628127038718e+02 0 0 0
5427 156 4 0.0000000000000000e+00 -3.9707594818262471e+01 -6.3654796707025859e+01 -1.3264392967161865e+02 0 0 0
2089 60 2 0.0000000000000000e+00 -4.3553307684928278e+01 -6.9521166531075480e+01 -1.2406329103210224e+02 0 0 0
6495 186 4 0.0000000000000000e+00 -9.1696050055673226e+01 -4.9842175592569681e+01 -1.3009871830823010e+02 0 0 0
6496 186 4 0.0000000000000000e+00 -8.2803138238896366e+01 -5.0557225757496830e+01 -1.3269816041169736e+02 0 0 0
6497 186 4 0.0000000000000000e+00 -7.3291225707492586e+01 -5.0687851370289209e+01 -1.3433615971288287e+02 0 0 0
6498 186 4 0.0000000000000000e+00 -6.4978269982014780e+01 -4.5364672207827240e+01 -1.3496585851936536e+02 0 0 0
6499 186 4 0.0000000000000000e+00 -5.8545364192732897e+01 -5.3301318953418019e+01 -1.3203971332206197e+02 0 0 0
6500 186 3 0.0000000000000000e+00 -4.9533177449749608e+01 -5.0241110848106850e+01 -1.2783365850305702e+02 0 0 0
4748 136 4 0.0000000000000000e+00 -8.4591443823237867e+01 -4.1639100862182929e+01 -1.2327888173343074e+02 0 0 0
4747 136 4 0.0000000000000000e+00 -8.9801097276085855e+01 -3.9466765141160444e+01 -1.3121108105608533e+02 0 0 0
4746 136 4 0.0000000000000000e+00 -7.9555558645477390e+01 -3.8470145776103983e+01 -1.3324324359032266e+02 0 0 0
4745 136 4 0.0000000000000000e+00 -7.1053877487402431e+01 -4.1221434875502894e+01 -1.2781455799735762e+02 0 0 0
2067 60 2 0.0000000000000000e+00 -7.4927808067376603e+01 -3.1740790101519018e+01 -1.2516826633286270e+02 0 0 0
4743 136 3 0.0000000000000000e+00 -5.6055262374971406e+01 -3.9512692501636195e+01 -1.2496290925945900e+02 0 0 0
4742 136 4 0.0000000000000000e+00 -5.0219216993587125e+01 -3.9296973400092746e+01 -1.3332258817456901e+02 0 0 0
6501 186 4 0.0000000000000000e+00 -4.2420866117974640e+01 -4.3405942537243966e+01 -1.2847013069680366e+02 0 0 0
2521 73 2 0.0000000000000000e+00 -1.0622747525427110e+02 -1.9101356131578211e+01 -1.2272960035276060e+02 0 0 0
2522 73 2 0.0000000000000000e+00 -9.9589836583447138e+01 -2.6588561714807586e+01 -1.2375722223784520e+02 0 0 0
2069 60 1 0.0000000000000000e+00 -9.1196223954847014e+01 -2.1082023505114925e+01 -1.2336754880535024e+02 0 0 0
2068 60 2 0.0000000000000000e+00 -8.1891994427779750e+01 -2.4989047903625991e+01 -1.2260349861485261e+02 0 0 0
2066 60 2 0.0000000000000000e+00 -7.0592570020701885e+01 -2.3292157345082639e+01 -1.2789676563771030e+02 0 0 0
2238 64 2 0.0000000000000000e+00 -5.1941866446374334e+01 -2.1667527635301816e+01 -1.2768355130516019e+02 0 0 0
5541 159 3 0.0000000000000000e+00 -6.0208399480203028e+01 -1.7379276578668041e+01 -1.2493810245677714e+02 0 0 0
3019 87 2 0.0000000000000000e+00 -3.6887023663738951e+01 -2.4825976922439537e+01 -1.3046171278039071e+02 0 0 0
3018 87 2 0.0000000000000000e+00 -4.1101717220056670e+01 -1.8750503670824781e+01 -1.2380344211790494e+02 0 0 0
5911 169 4 0.0000000000000000e+00 -9.3602387929719455e+01 -1.1393132359316498e+01 -1.2659405275351598e+02 0 0 0
5910 169 4 0.0000000000000000e+00 -8.6538510031915152e+01 -5.3573679270942325e+00 -1.3117212172467111e+02 0 0 0
6338 182 4 0.0000000000000000e+00 -7.6533627478680529e+01 -1.4012311767875595e+01 -1.3106951113241911e+02 0 0 0
6339 182 3 0.0000000000000000e+00 -6.9552243551245837e+01 -1.0343585756747437e+01 -1.2430629357638489e+02 0 0 0
5540 159 4 0.0000000000000000e+00 -5.6075630770695227e+01 -8.3985198754815649e+00 -1.2496401401242514e+02 0 0 0
2239 64 2 0.0000000000000000e+00 -4.6984441260229794e+01 -1.3116841333161263e+01 -1.2960275154789838e+02 0 0 0
2240 64 2 0.0000000000000000e+00 -3.9734612127207356e+01 -6.4945037260900955e+00 -1.3220508731256879e+02 0 0 0
735 21 2 0.0000000000000000e+00 -8.8295996416852503e+01 7.1273062061923547e+00 -1.3083639383709027e+02 0 0 0
1797 52 2 0.0000000000000000e+00 -6.7898903509050115e+01 4.4213247389932384e+00 -1.3072883100118571e+02 0 0 0
1796 52 1 0.0000000000000000e+00 -7.4419353728982117e+01 2.9047184514983165e-01 -1.2399383747908050e+02 0 0 0
1798 52 2 0.0000000000000000e+00 -6.0811008366199729e+01 9.2958273736847552e+00 -1.3586089974204793e+02 0 0 0
5539 159 4 0.0000000000000000e+00 -5.2355996272449381e+01 -9.5984916010505461e-01 -1.3033819455487543e+02 0 0 0
5538 159 4 0.0000000000000000e+00 -4.3238947444598153e+01 2.0237334951153230e+00 -1.2797312923564959e+02 0 0 0
3024 87 2 0.0000000000000000e+00 -3.7113341878312944e+01 7.2996770677757290e+00 -1.3429338489887451e+02 0 0 0
734 21 2 0.0000000000000000e+00 -8.9540898966363528e+01 1.6287698760608158e+01 -1.3498398596342747e+02 0 0 0
5906 169 4 0.0000000000000000e+00 -7.8380498178577284e+01 2.2072226849194443e+01 -1.3150199414940215e+02 0 0 0
6180 177 4 0.0000000000000000e+00 -6.9230523706600479e+01 1.8456880987014831e+01 -1.2434739430733295e+02 0 0 0
6181 177 4 0.0000000000000000e+00 -5.9526318010676739e+01 1.6419769162208024e+01 -1.2415318219154764e+02 0 0 0
5537 159 4 0.0000000000000000e+00 -4.4681459077151885e+01 1.2291907727271003e+01 -1.2751566087384982e+02 0 0 0
4430 127 4 0.0000000000000000e+00 -4.0495749350312572e+01 2.3528053176853803e+01 -1.2997740160694676e+02 0 0 0
6254 179 4 0.0000000000000000e+00 -1.0947701321992106e+02 -7.3958985788819177e+01 -1.1699103058366900e+02 0 0 0
2543 73 2 0.0000000000000000e+00 -9.9039560536311740e+01 -7.3063080432654544e+01 -1.1153945950247298e+02 0 0 0
2086 60 2 0.0000000000000000e+00 -6.4595171305614812e+01 -7.3010469875628885e+01 -1.1342322242557823e+02 0 0 0
2087 60 2 0.0000000000000000e+00 -5.9757977581730195e+01 -7.7978587697743720e+01 -1.2099645142463520e+02 0 0 0
6255 179 3 0.0000000000000000e+00 -1.0521856977060361e+02 -6.4566801626932687e+01 -1.1679919662813742e+02 0 0 0
2544 73 2 0.0000000000000000e+00 -9.6353649904965224e+01 -7.1240712353019632e+01 -1.2118270611879525e+02 0 0 0
2632 76 2 0.0000000000000000e+00 -5.2730089553623522e+01 -6.6696026148512615e+01 -1.1240432345809008e+02 0 0 0
2631 76 2 0.0000000000000000e+00 -5.7894230475792050e+01 -5.8669586102682068e+01 -1.1536396437047694e+02 0 0 0
6493 186 3 0.0000000000000000e+00 -1.0462960095854929e+02 -4.7997758742295197e+01 -1.1622800837825710e+02 0 0 0
6494 186 4 0.0000000000000000e+00 -9.7988429494544349e+01 -5.1203561244211691e+01 -1.2221831250539738e+02 0 0 0
6256 179 4 0.0000000000000000e+00 -1.0121557395959842e+02 -5.8207073505201876e+01 -1.1050055091675662e+02 0 0 0
2547 73 2 0.0000000000000000e+00 -7.9792933801581640e+01 -5.8440880605589541e+01 -1.2102659059026510e+02 0 0 0
2546 73 2 0.0000000000000000e+00 -8.8823886026015842e+01 -5.5709989963233198e+01 -1.2095130666797952e+02 0 0 0
4749 136 4 0.0000000000000000e+00 -7.9205675351049166e+01 -4.5318084812193383e+01 -1.1565021729441534e+02 0 0 0
2630 76 2 0.0000000000000000e+00 -6.6867699166084861e+01 -5.8098808740755629e+01 -1.1146954398313507e+02 0 0 0
6513 187 4 0.0000000000000000e+00 -5.1555928882710120e+01 -5.3090455613961453e+01 -1.0914117553561195e+02 0 0 0
6512 187 4 0.0000000000000000e+00 -4.6014454637601489e+01 -4.7550193918652077e+01 -1.1495047879505050e+02 0 0 0
6492 186 4 0.0000000000000000e+00 -1.1289434462192406e+02 -4.3394021237653391e+01 -1.1199911379445463e+02 0 0 0
2524 73 1 0.0000000000000000e+00 -9.5147047157717964e+01 -4.2476553240548945e+01 -1.1348985205321041e+02 0 0 0
2523 73 2 0.0000000000000000e+00 -9.5330490615585120e+01 -3.4628398915513941e+01 -1.1929898917290220e+02 0 0 0
4744 136 4 0.0000000000000000e+00 -6.4682039975843196e+01 -4.2263988420935469e+01 -1.2010612964931548e+02 0 0 0
2236 64 2 0.0000000000000000e+00 -5.7891545980958604e+01 -3.2185899442618350e+01 -1.1237921332416889e+02 0 0 0
6511 187 4 0.0000000000000000e+00 -4.2805068675488890e+01 -3.8826484977087205e+01 -1.1800554852473981e+02 0 0 0
5914 169 4 0.0000000000000000e+00 -1.0527459951887128e+02 -2.9589629543384280e+01 -1.0999908884379455e+02 0 0 0
5913 169 4 0.0000000000000000e+00 -1.0111036984766392e+02 -2.0316270490797606e+01 -1.1143973161915966e+02 0 0 0
2070 60 2 0.0000000000000000e+00 -9.1059006126031946e+01 -2.6374251175524009e+01 -1.1497382131871046e+02 0 0 0
5542 159 4 0.0000000000000000e+00 -6.4528407769651025e+01 -1.9667650052058317e+01 -1.1615319157004541e+02 0 0 0
2237 64 1 0.0000000000000000e+00 -5.2890194901150551e+01 -2.9307744037269412e+01 -1.2064865126242758e+02 0 0 0
1628 47 1 0.0000000000000000e+00 -5.2725579882810052e+01 -1.7191583570779734e+01 -1.1694508719900874e+02 0 0 0
1629 47 2 0.0000000000000000e+00 -5.1102285612233793e+01 -2.4019914568524587e+01 -1.1015028219354113e+02 0 0 0
3017 87 2 0.0000000000000000e+00 -4.0898745209919838e+01 -1.8656118372444563e+01 -1.1388717299798382e+02 0 0 0
5912 169 3 0.0000000000000000e+00 -9.8152854068657476e+01 -1.3836736975478871e+01 -1.1828111526853191e+02 0 0 0
1794 52 2 0.0000000000000000e+00 -9.3182157236377577e+01 -3.3714532730617304e+00 -1.1929960604321577e+02 0 0 0
1795 52 2 0.0000000000000000e+00 -8.3778424437478193e+01 -3.9517844443178531e+00 -1.2175433564810226e+02 0 0 0
5897 169 4 0.0000000000000000e+00 -8.9926383495189071e+01 -9.7227902939194291e+00 -1.1021456789115535e+02 0 0 0
5899 169 4 0.0000000000000000e+00 -7.4176549832754844e+01 -6.8558284080402094e+00 -1.0980775739067545e+02 0 0 0
1627 47 2 0.0000000000000000e+00 -4.7202586387869594e+01 -9.7214911060405154e+00 -1.1377376387683167e+02 0 0 0
5425 155 4 0.0000000000000000e+00 -1.0645437223728594e+02 8.6217214276220808e+00 -1.1189748248472969e+02 0 0 0
1793 52 2 0.0000000000000000e+00 -1.0169948560874720e+02 -3.1372425792946927e+00 -1.1373014591335470e+02 0 0 0
5898 169 3 0.0000000000000000e+00 -8.2948781815552806e+01 -2.4658399999368448e+00 -1.1134753110119706e+02 0 0 0
6340 182 4 0.0000000000000000e+00 -6.6483149798298598e+01 -3.2175039713793065e+00 -1.1765353652323819e+02 0 0 0
6341 182 4 0.0000000000000000e+00 -7.1890030444622411e+01 3.1589909508335716e+00 -1.1219329156921243e+02 0 0 0
5901 169 4 0.0000000000000000e+00 -5.7684279795735300e+01 2.9464315403059800e+00 -1.0985101861844116e+02 0 0 0
6183 177 4 0.0000000000000000e+00 -5.0241986426217679e+01 9.7378565020877179e+00 -1.1115995312831019e+02 0 0 0
1626 47 2 0.0000000000000000e+00 -4.3040937536455239e+01 -1.0830537305204269e+00 -1.1473816870586847e+02 0 0 0
3724 107 4 0.0000000000000000e+00 -1.2679273893070500e+02 1.9849827440282276e+01 -1.0989690328011143e+02 0 0 0
5904 169 4 0.0000000000000000e+00 -7.7341698074318614e+01 2.2344853156016359e+01 -1.1740153879592444e+02 0 0 0
5903 169 4 0.0000000000000000e+00 -7.0235676801659196e+01 1.6500221012352984e+01 -1.1294451502296332e+02 0 0 0
5902 169 4 0.0000000000000000e+00 -6.2179901447371350e+01 1.0720491409133533e+01 -1.1526198179906449e+02 0 0 0
6182 177 4 0.0000000000000000e+00 -5.1989048691433482e+01 1.0771127006515233e+01 -1.2095668478777546e+02 0 0 0
5495 157 4 0.0000000000000000e+00 -6.1441332720201274e+01 2.3710242194308844e+01 -1.1608101855273932e+02 0 0 0
6184 177 4 0.0000000000000000e+00 -4.0494644180876769e+01 1.1267607735796394e+01 -1.1130872925401187e+02 0 0 0
5536 159 4 0.0000000000000000e+00 -4.8686445383693105e+01 1.9686992275047441e+01 -1.2232165713177751e+02 0 0 0
6322 181 4 0.0000000000000000e+00 -9.8571092903508216e+01 -8.6173762722856054e+01 -9.6736959497414574e+01 0 0 0
6252 179 4 0.0000000000000000e+00 -1.2075922252316661e+02 -7.8422662778890214e+01 -1.0157534409682107e+02 0 0 0
6253 179 4 0.0000000000000000e+00 -1.1414473914347512e+02 -7.7137645784468418e+01 -1.0895952105991279e+02 0 0 0
2541 73 2 0.0000000000000000e+00 -1.0612392816245300e+02 -8.1114020503752727e+01 -9.9136336790804251e+01 0 0 0
2542 73 2 0.0000000000000000e+00 -1.0445780317214411e+02 -7.2687701415865789e+01 -1.0363118503634709e+02 0 0 0
6323 181 4 0.0000000000000000e+00 -9.0595072816819268e+01 -8.4167039419134070e+01 -1.0195527477536555e+02 0 0 0
6324 181 4 0.0000000000000000e+00 -8.0491879065226001e+01 -8.2390093392889966e+01 -1.0066631687268139e+02 0 0 0
4865 139 4 0.0000000000000000e+00 -6.6315582358433659e+01 -7.7595202352941882e+01 -1.0354245932462588e+02 0 0 0
4864 139 4 0.0000000000000000e+00 -6.0926425302703969e+01 -7.2444430441801700e+01 -9.6383598002167531e+01 0 0 0
1540 44 2 0.0000000000000000e+00 -8.3346605274460345e+01 -7.0694719952606562e+01 -1.0821010419834380e+02 0 0 0
1539 44 2 0.0000000000000000e+00 -7.4922113212658431e+01 -7.1975263467747354e+01 -1.0391818121914918e+02 0 0 0
2085 60 2 0.0000000000000000e+00 -6.2704277779644841e+01 -6.8176801412486583e+01 -1.0506663073506394e+02 0 0 0
2084 60 2 0.0000000000000000e+00 -5.7241241221926245e+01 -6.1349830626631835e+01 -1.0115451560464210e+02 0 0 0
2633 76 2 0.0000000000000000e+00 -4.6865048604339954e+01 -7.1015043507103670e+01 -1.0559532046649717e+02 0 0 0
2634 76 2 0.0000000000000000e+00 -4.1476037445238944e+01 -6.7012624179139934e+01 -9.8783831240564140e+01 0 0 0
2526 73 2 0.0000000000000000e+00 -1.0956313203306235e+02 -4.6310398824658762e+01 -1.0055720338923508e+02 0 0 0
6257 179 4 0.0000000000000000e+00 -9.9900632751527652e+01 -5.5766887759120777e+01 -1.0104085991523527e+02 0 0 0
4750 136 3 0.0000000000000000e+00 -7.9189649334468342e+01 -4.9575407183657447e+01 -1.0681329336845711e+02 0 0 0
4751 136 4 0.0000000000000000e+00 -8.5932006757504453e+01 -5.6070748447339056e+01 -1.0371382144990996e+02 0 0 0
2628 76 2 0.0000000000000000e+00 -7.7995338155857624e+01 -5.2333324361769883e+01 -9.7617982454775799e+01 0 0 0
2629 76 1 0.0000000000000000e+00 -7.0363563915530960e+01 -5.5096767311155830e+01 -1.0318261446064960e+02 0 0 0
6514 187 3 0.0000000000000000e+00 -6.0948619397332443e+01 -5.0140794532397749e+01 -1.0650546268545524e+02 0 0 0
2083 60 1 0.0000000000000000e+00 -5.2985339436931959e+01 -5.2527744273067405e+01 -9.9657802138377946e+01 0 0 0
6491 186 4 0.0000000000000000e+00 -1.1575747388666242e+02 -3.6750192174171971e+01 -1.0516507894345708e+02 0 0 0
2525 73 2 0.0000000000000000e+00 -1.0131264848144760e+02 -4.4161738078122781e+01 -1.0592173413671601e+02 0 0 0
5915 169 4 0.0000000000000000e+00 -9.7374305531529572e+01 -3.4167266678736439e+01 -1.0706223482568011e+02 0 0 0
2071 60 2 0.0000000000000000e+00 -8.7042700158557821e+01 -3.2135078286017993e+01 -1.0772670504757606e+02 0 0 0
2072 60 2 0.0000000000000000e+00 -8.0529409506422454e+01 -3.4391239704421508e+01 -9.9979848640138570e+01 0 0 0
6516 187 4 0.0000000000000000e+00 -6.7709965304179249e+01 -3.3179646093247605e+01 -1.0190917038869165e+02 0 0 0
6515 187 4 0.0000000000000000e+00 -6.5249533004471346e+01 -4.2826452145724367e+01 -1.0097818426327242e+02 0 0 0
2235 64 2 0.0000000000000000e+00 -5.5139909322717671e+01 -4.0124239633600112e+01 -1.0704159058127232e+02 0 0 0
2234 64 2 0.0000000000000000e+00 -4.5975062921367169e+01 -4.3857117765916236e+01 -1.0484147905380523e+02 0 0 0
1630 47 2 0.0000000000000000e+00 -4.8655436380557951e+01 -3.1496802074670647e+01 -1.0461317767605092e+02 0 0 0
2233 64 2 0.0000000000000000e+00 -3.9288466844405562e+01 -4.2563171525086354e+01 -9.7829556520473417e+01 0 0 0
6490 186 4 0.0000000000000000e+00 -1.1646737971964966e+02 -2.8266291259742033e+01 -9.9734437040945011e+01 0 0 0
6263 179 4 0.0000000000000000e+00 -1.0534742208214138e+02 -3.0625632019064355e+01 -9.8305827460902123e+01 0 0 0
6264 179 4 0.0000000000000000e+00 -9.5561038695178141e+01 -2.6801658928189777e+01 -1.0013856995539646e+02 0 0 0
6265 179 4 0.0000000000000000e+00 -8.9937959450444922e+01 -2.0996896193067133e+01 -1.0564282130746071e+02 0 0 0
6518 187 4 0.0000000000000000e+00 -8.1460513962433438e+01 -2.1243164556573610e+01 -9.9421539100218411e+01 0 0 0
6517 187 4 0.0000000000000000e+00 -7.3837097584932820e+01 -2.5981360832233189e+01 -1.0221092809810861e+02 0 0 0
5544 159 4 0.0000000000000000e+00 -5.8873266483937755e+01 -1.9515718963250574e+01 -1.0086674942905874e+02 0 0 0
5545 159 4 0.0000000000000000e+00 -5.6860645233563893e+01 -2.7969592994669949e+01 -9.5741761891374651e+01 0 0 0
2926 84 2 0.0000000000000000e+00 -1.3160055298454239e+02 -1.5058065070147755e+01 -1.0345542926984919e+02 0 0 0
2927 84 2 0.0000000000000000e+00 -1.2193007826501923e+02 -1.3749294405055171e+01 -1.0233874322235131e+02 0 0 0
2928 84 2 0.0000000000000000e+00 -1.1205295220277065e+02 -1.1818324735141370e+01 -1.0175652122380632e+02 0 0 0
2929 84 2 0.0000000000000000e+00 -1.0576536772334649e+02 -1.7005328962398806e+01 -9.6855472455863833e+01 0 0 0
5896 169 4 0.0000000000000000e+00 -9.5876474129270022e+01 -8.6866016940554118e+00 -1.0271887878348366e+02 0 0 0
5543 159 4 0.0000000000000000e+00 -6.5880776971958412e+01 -1.6413354612757615e+01 -1.0698919604606729e+02 0 0 0
2915 84 2 0.0000000000000000e+00 -7.4914844566076894e+01 -9.5610994829098264e+00 -9.8716102732146254e+01 0 0 0
5900 169 4 0.0000000000000000e+00 -6.4433905065927107e+01 -5.2939775797959641e+00 -1.0855069940207859e+02 0 0 0
5131 147 4 0.0000000000000000e+00 -5.6341694683876163e+01 -7.0350246247646044e+00 -9.8316717297546845e+01 0 0 0
3016 87 2 0.0000000000000000e+00 -4.0966891292472738e+01 -1.1174790766804543e+01 -1.0668772533399375e+02 0 0 0
3726 107 4 0.0000000000000000e+00 -1.1873607372960744e+02 4.9449371449228146e+00 -1.0059684956661167e+02 0 0 0
5424 155 4 0.0000000000000000e+00 -1.1066194148525990e+02 1.0462715049909399e+01 -1.0281859783740755e+02 0 0 0
1792 52 2 0.0000000000000000e+00 -1.0333528053001392e+02 -1.4947690519351347e+00 -1.0422234788369889e+02 0 0 0
2916 84 1 0.0000000000000000e+00 -8.0991024258978229e+01 -1.8779898082606550e+00 -1.0030487284757494e+02 0 0 0
2917 84 2 0.0000000000000000e+00 -8.9415259886864504e+01 -2.1243685282919042e-01 -9.5762706959078841e+01 0 0 0
6342 182 4 0.0000000000000000e+00 -7.7146594418326856e+01 7.1964816553650675e+00 -1.0552166749651720e+02 0 0 0
6343 182 4 0.0000000000000000e+00 -7.4641279428619967e+01 9.8254984997683028e+00 -9.6348474254538488e+01 0 0 0
3387 97 2 0.0000000000000000e+00 -5.2168549260046916e+01 5.7701904542526865e+00 -9.8262671817711606e+01 0 0 0
5132 147 4 0.0000000000000000e+00 -4.6757473390407149e+01 -3.0433968400570932e+00 -1.0151556580535315e+02 0 0 0
3725 107 4 0.0000000000000000e+00 -1.2342337061843155e+02 1.1905420221900767e+01 -1.0606236530058982e+02 0 0 0
5423 155 4 0.0000000000000000e+00 -1.1211539437564670e+02 1.7111631448116722e+01 -9.5953372821654995e+01 0 0 0
6344 182 4 0.0000000000000000e+00 -7.9552145867811575e+01 1.7612088073800692e+01 -9.7044786454518956e+01 0 0 0
3386 97 2 0.0000000000000000e+00 -5.8157504213220747e+01 1.3140076325064484e+01 -1.0131720842413237e+02 0 0 0
3385 97 1 0.0000000000000000e+00 -6.0956067581788211e+01 2.0648772926513381e+01 -1.0705626824688163e+02 0 0 0
5141 147 4 0.0000000000000000e+00 -5.1446023150234218e+01 2.4118940804676480e+01 -9.8766333059530908e+01 0 0 0
3201 92 2 0.0000000000000000e+00 -3.7000642328940543e+01 1.6718159207159257e+01 -1.0233440591885410e+02 0 0 0
2540 73 2 0.0000000000000000e+00 -1.1263010395524867e+02 -8.6206997766961905e+01 -9.3053159103710129e+01 0 0 0
2539 73 2 0.0000000000000000e+00 -1.2265239805518551e+02 -8.5764501867529717e+01 -8.9984336995088015e+01 0 0 0
2538 73 1 0.0000000000000000e+00 -1.2807386561045732e+02 -8.0268205964604434e+01 -8.4114089555068588e+01 0 0 0
6251 179 4 0.0000000000000000e+00 -1.2536306279004283e+02 -7.5085835863765212e+01 -9.3143200697876011e+01 0 0 0
6321 181 4 0.0000000000000000e+00 -1.0249268101552640e+02 -8.4079284215156818e+01 -8.8387952610521467e+01 0 0 0
6325 181 3 0.0000000000000000e+00 -7.3388160396219703e+01 -8.2339840271151488e+01 -9.4020007361766204e+01 0 0 0
1537 44 1 0.0000000000000000e+00 -7.5491061309325701e+01 -7.3524975265750072e+01 -8.7174121090427761e+01 0 0 0
6326 181 4 0.0000000000000000e+00 -6.6754078723074912e+01 -7.8055014281358709e+01 -8.8107633057019981e+01 0 0 0
6327 181 4 0.0000000000000000e+00 -5.7501354973130013e+01 -7.7854704390732678e+01 -8.5254673367970142e+01 0 0 0
6250 179 4 0.0000000000000000e+00 -1.2379318136464987e+02 -6.8615321127508167e+01 -8.5832909046351276e+01 0 0 0
2206 64 2 0.0000000000000000e+00 -1.0799474853771949e+02 -6.4030239782368781e+01 -8.9471106897685118e+01 0 0 0
2207 64 2 0.0000000000000000e+00 -1.0027865175332262e+02 -6.4749944883927583e+01 -8.2873187010986300e+01 0 0 0
1538 44 2 0.0000000000000000e+00 -7.0810703298036870e+01 -7.0173501596205526e+01 -9.5154381790013218e+01 0 0 0
2081 60 2 0.0000000000000000e+00 -6.5039148342365934e+01 -5.9825816590723889e+01 -8.7841415638730723e+01 0 0 0
4863 139 4 0.0000000000000000e+00 -5.7234100995206987e+01 -6.5022983072178604e+01 -9.0676238561354069e+01 0 0 0
2219 64 2 0.0000000000000000e+00 -4.7313270442289195e+01 -6.2749204279090328e+01 -8.4332953011976855e+01 0 0 0
2635 76 2 0.0000000000000000e+00 -3.7718288872490447e+01 -6.6323648071070195e+01 -8.9291975258424912e+01 0 0 0
2527 73 2 0.0000000000000000e+00 -1.1127836881732270e+02 -4.9638688809513759e+01 -9.1254296373790581e+01 0 0 0
2528 73 2 0.0000000000000000e+00 -1.0808298243847024e+02 -5.2975667532059397e+01 -8.2170528175449533e+01 0 0 0
6258 179 4 0.0000000000000000e+00 -1.0186638109932352e+02 -5.5721999342735842e+01 -9.1269698254161909e+01 0 0 0
6259 179 4 0.0000000000000000e+00 -9.8112616848501432e+01 -4.9650330323729399e+01 -8.3506439059608482e+01 0 0 0
4753 136 4 0.0000000000000000e+00 -9.2232737527137232e+01 -4.5825818691916758e+01 -9.3100976198562080e+01 0 0 0
4752 136 4 0.0000000000000000e+00 -9.0577985361850679e+01 -5.5377326121873025e+01 -9.5069832761811114e+01 0 0 0
2627 76 2 0.0000000000000000e+00 -8.2393897879712824e+01 -4.5924875419582818e+01 -9.1851287978163427e+01 0 0 0
2381 69 2 0.0000000000000000e+00 -7.6694147839381799e+01 -5.6613189456745431e+01 -8.8452814370913956e+01 0 0 0
2382 69 2 0.0000000000000000e+00 -6.9350261939717015e+01 -5.0261937477691809e+01 -8.6247821081956474e+01 0 0 0
2082 60 2 0.0000000000000000e+00 -6.1245761821202123e+01 -5.4183493788429772e+01 -9.5108693448086370e+01 0 0 0
4862 139 3 0.0000000000000000e+00 -5.4662483308537560e+01 -5.6327772021313784e+01 -8.6196671861928849e+01 0 0 0
2384 69 1 0.0000000000000000e+00 -5.2030461136783806e+01 -4.5509057978585084e+01 -8.3682034413247806e+01 0 0 0
2220 64 2 0.0000000000000000e+00 -4.4530198434183390e+01 -5.5011701175399324e+01 -9.0180925335981456e+01 0 0 0
2933 84 2 0.0000000000000000e+00 -1.3288699795171541e+02 -3.1939287577627240e+01 -8.4689540321629181e+01 0 0 0
2932 84 2 0.0000000000000000e+00 -1.2362830546032720e+02 -3.4118188498852376e+01 -8.7969999383022994e+01 0 0 0
6262 179 3 0.0000000000000000e+00 -1.0989641709356242e+02 -3.6307562841702818e+01 -9.1615693624154929e+01 0 0 0
6261 179 4 0.0000000000000000e+00 -1.0497141857060367e+02 -4.0427825437225984e+01 -8.3682396698416824e+01 0 0 0
4754 136 4 0.0000000000000000e+00 -9.6912753079995241e+01 -3.7234465463556916e+01 -8.9054457305825181e+01 0 0 0
2626 76 2 0.0000000000000000e+00 -8.6359691374509609e+01 -3.9452443607875985e+01 -8.6417971285164398e+01 0 0 0
5547 159 4 0.0000000000000000e+00 -6.8323174927498769e+01 -3.6837407152896219e+01 -8.3492068457115778e+01 0 0 0
5546 159 4 0.0000000000000000e+00 -6.3597995679304177e+01 -3.3115693024887634e+01 -9.1316826462026910e+01 0 0 0
2073 60 2 0.0000000000000000e+00 -7.4397797027020118e+01 -3.1495736904149080e+01 -9.2497966635665605e+01 0 0 0
2383 69 2 0.0000000000000000e+00 -6.1005297379003835e+01 -4.4275622610991050e+01 -8.8015937608502512e+01 0 0 0
2385 69 2 0.0000000000000000e+00 -4.2605623928561876e+01 -4.1359570176611257e+01 -8.3736875181524098e+01 0 0 0
1631 47 2 0.0000000000000000e+00 -4.5819255196674597e+01 -3.2940848726933119e+01 -9.5476663477426641e+01 0 0 0
1632 47 2 0.0000000000000000e+00 -4.0815234020258764e+01 -3.1986947481405558e+01 -8.6732626691485706e+01 0 0 0
6489 186 4 0.0000000000000000e+00 -1.2037517586328893e+02 -2.2397879008193375e+01 -9.3014594832678981e+01 0 0 0
2934 84 2 0.0000000000000000e+00 -1.3121560995930139e+02 -2.2606236553774679e+01 -8.4985108089326104e+01 0 0 0
2931 84 2 0.0000000000000000e+00 -1.1594842744706699e+02 -2.8079918060549719e+01 -8.6404541111510795e+01 0 0 0
2930 84 1 0.0000000000000000e+00 -1.0798168899792870e+02 -2.4556122358056459e+01 -9.0011320047137914e+01 0 0 0
4755 136 4 0.0000000000000000e+00 -9.9915251049064238e+01 -2.9085786146284615e+01 -8.3291795323685207e+01 0 0 0
6519 187 4 0.0000000000000000e+00 -9.0252623381435399e+01 -1.8170996439609869e+01 -9.4951315683969241e+01 0 0 0
2913 84 2 0.0000000000000000e+00 -7.8506797502949510e+01 -1.8723042644335422e+01 -8.7014950904870787e+01 0 0 0
2912 84 2 0.0000000000000000e+00 -8.7503954594835875e+01 -2.3103350495424760e+01 -8.3876519100136051e+01 0 0 0
2914 84 2 0.0000000000000000e+00 -7.0791177305071997e+01 -1.7362432454147932e+01 -9.2654947675841342e+01 0 0 0
2074 60 2 0.0000000000000000e+00 -7.2575839165751333e+01 -2.8108567553970580e+01 -8.3246140510666820e+01 0 0 0
5129 147 4 0.0000000000000000e+00 -6.2230199717251104e+01 -1.9864556023464971e+01 -8.5802129980532413e+01 0 0 0
3390 97 2 0.0000000000000000e+00 -4.6551772995005273e+01 -1.8054858940577041e+01 -8.3237455398529292e+01 0 0 0
2925 84 2 0.0000000000000000e+00 -1.3353537318344860e+02 -1.0496537746362087e+01 -9.4600079275374341e+01 0 0 0
1719 50 1 0.0000000000000000e+00 -1.4285499159950214e+02 -5.2195370045598235e+00 -8.6180579823076883e+01 0 0 0
6487 186 4 0.0000000000000000e+00 -1.3366937804765641e+02 -9.6527550706536083e+00 -8.3822476418350149e+01 0 0 0
6488 186 4 0.0000000000000000e+00 -1.2564426948385616e+02 -1.4833424978222586e+01 -8.8323991399506980e+01 0 0 0
2924 84 2 0.0000000000000000e+00 -1.2807059933886092e+02 -3.8413404014723698e+00 -8.9589234041176312e+01 0 0 0
3728 107 3 0.0000000000000000e+00 -1.1059189716732054e+02 -6.9435347799420706e+00 -8.7064419013483359e+01 0 0 0
5895 169 4 0.0000000000000000e+00 -1.0068328469992426e+02 -8.4709042928406184e+00 -9.4467576128430991e+01 0 0 0
6520 187 4 0.0000000000000000e+00 -8.9382829100838777e+01 -1.0006396034401480e+01 -8.9470905885158430e+01 0 0 0
5130 147 4 0.0000000000000000e+00 -6.1682134239753040e+01 -1.1882479430425350e+01 -9.1565725943315343e+01 0 0 0
3389 97 2 0.0000000000000000e+00 -4.9282581972583046e+01 -9.0305767969347546e+00 -8.7838873816263416e+01 0 0 0
3392 97 1 0.0000000000000000e+00 -3.6793739529349132e+01 -1.4059413156270136e+01 -8.5575910349045529e+01 0 0 0
5529 158 4 0.0000000000000000e+00 -2.0279545010415885e+02 7.3638899803095343e+00 -8.3772746441587856e+01 0 0 0
1720 50 2 0.0000000000000000e+00 -1.4094147753366013e+02 4.6188428927819905e+00 -8.5578692157963644e+01 0 0 0
2923 84 1 0.0000000000000000e+00 -1.1948547086073148e+02 5.3850668288773795e-01 -8.5961431345625911e+01 0 0 0
3727 107 4 0.0000000000000000e+00 -1.1246109651086290e+02 -1.4975735254493487e+00 -9.5447169210783031e+01 0 0 0
2922 84 2 0.0000000000000000e+00 -1.1134325329246121e+02 6.9519696322514326e+00 -8.4099423098924063e+01 0 0 0
1790 52 2 0.0000000000000000e+00 -1.0408407391466041e+02 9.2262124094564246e+00 -9.4157698520694979e+01 0 0 0
1791 52 2 0.0000000000000000e+00 -9.8997642981608649e+01 8.0351439701424932e-01 -9.5451155956394672e+01 0 0 0
5894 169 4 0.0000000000000000e+00 -1.0225587857770232e+02 -2.9884513571365430e+00 -8.6198221459296164e+01 0 0 0
2918 84 2 0.0000000000000000e+00 -9.3635022732489233e+01 3.7136178233781427e+00 -8.8535804391255780e+01 0 0 0
5133 147 4 0.0000000000000000e+00 -3.9405085947329276e+01 -2.7422118892186327e+00 -9.4751759590465440e+01 0 0 0
3388 97 2 0.0000000000000000e+00 -4.8015907056498136e+01 -3.1524999907291479e-01 -9.1176877386709634e+01 0 0 0
5119 147 4 0.0000000000000000e+00 -3.7568767297282513e+01 3.0745556853697025e+00 -8.5285006664051636e+01 0 0 0