LAMMPS data file via write_data, version 5 Jun 2019, timestep = 370000000

7000 atoms
4 atom types
7292 bonds
3 bond types
6600 angles
2 angle types

-5.0000000000000000e+02 5.0000000000000000e+02 xlo xhi
-5.0000000000000000e+02 5.0000000000000000e+02 ylo yhi
-5.0000000000000000e+02 5.0000000000000000e+02 zlo zhi

Masses

1 1000
2 1000
3 1000
4 1000

Pair Coeffs # lj/cut

1 0.296 10
2 0.296 10
3 0.296 10
4 0.296 10

Angle Coeffs # cosine

1 2
2 2

Atoms # full

4550 130 4 0.0000000000000000e+00 -3.9813079017995612e+01 -5.2216882304611545e+00 -1.5900647621500991e+02 0 0 0
2240 64 2 0.0000000000000000e+00 -4.8676194843482158e+01 -7.1839233250687755e+01 -1.4964242154526804e+02 0 0 0
2626 76 2 0.0000000000000000e+00 -8.4846732606596376e+01 -5.6497302362481754e+01 -1.4269095533522540e+02 0 0 0
6502 186 4 0.0000000000000000e+00 -3.7262359528309034e+01 -1.6283176569949458e+01 -1.4214331818380433e+02 0 0 0
6503 186 4 0.0000000000000000e+00 -2.9105145846387604e+01 -2.1699271035658661e+01 -1.4608419313667315e+02 0 0 0
5538 159 4 0.0000000000000000e+00 -6.2869594999874472e+01 3.1908594029585918e-01 -1.4241849452106402e+02 0 0 0
1624 47 2 0.0000000000000000e+00 -3.9333648769380389e+01 -5.2673072150565075e+00 -1.4278847396782044e+02 0 0 0
5425 155 4 0.0000000000000000e+00 -1.2180433779310255e+02 4.7182982888238829e+00 -1.5333828532997981e+02 0 0 0
5424 155 4 0.0000000000000000e+00 -1.2283148907747568e+02 3.3571686910489058e+00 -1.4347789867981058e+02 0 0 0
4549 130 4 0.0000000000000000e+00 -3.5645445476786165e+01 6.4803800596902117e-01 -1.5228327455970302e+02 0 0 0
4548 130 4 0.0000000000000000e+00 -3.7305454174868942e+01 6.9351308643344360e+00 -1.4487866891667801e+02 0 0 0
2239 64 2 0.0000000000000000e+00 -4.7345200345297918e+01 -7.3202308321017725e+01 -1.4023481900488750e+02 0 0 0
2238 64 2 0.0000000000000000e+00 -3.9836030831354705e+01 -7.0663833625620484e+01 -1.3389662143484875e+02 0 0 0
2086 60 2 0.0000000000000000e+00 -2.8147666060751963e+01 -7.2655273697208756e+01 -1.3046672815403085e+02 0 0 0
4743 136 3 0.0000000000000000e+00 -4.0484036321565263e+01 -5.6419572575857934e+01 -1.2847696228160694e+02 0 0 0
2237 64 1 0.0000000000000000e+00 -3.5929057373400383e+01 -6.1432029628883406e+01 -1.3676743298952078e+02 0 0 0
2236 64 2 0.0000000000000000e+00 -2.6077761659195591e+01 -6.2694770182440323e+01 -1.3434629342763691e+02 0 0 0
2627 76 2 0.0000000000000000e+00 -7.9137010527112437e+01 -5.3137948543392667e+01 -1.3540283022528922e+02 0 0 0
2628 76 2 0.0000000000000000e+00 -7.5344964473297480e+01 -4.6249154739544466e+01 -1.2823932803359688e+02 0 0 0
4742 136 4 0.0000000000000000e+00 -4.3084507394029970e+01 -4.6584669791214090e+01 -1.3091620186758831e+02 0 0 0
2233 64 2 0.0000000000000000e+00 -2.4513589971541396e+01 -5.2691501509362851e+01 -1.3325174810335699e+02 0 0 0
1786 52 2 0.0000000000000000e+00 -1.1332210391787616e+02 -2.7034647876032111e+01 -1.3387356302521997e+02 0 0 0
2555 73 2 0.0000000000000000e+00 -5.2839001278946576e+01 -3.5634047916015817e+01 -1.3596463291446599e+02 0 0 0
4741 136 4 0.0000000000000000e+00 -4.3375300437623729e+01 -3.7164545217114217e+01 -1.3225383775087579e+02 0 0 0
4740 136 4 0.0000000000000000e+00 -4.1656876852602416e+01 -2.7160159715720344e+01 -1.3487104720759078e+02 0 0 0
6496 186 4 0.0000000000000000e+00 -8.6197605925244474e+01 -1.5167151187743675e+01 -1.3582578470270181e+02 0 0 0
6498 186 4 0.0000000000000000e+00 -6.7065926400348260e+01 -2.1507989321118089e+01 -1.3296018510511374e+02 0 0 0
6497 186 4 0.0000000000000000e+00 -7.6376158703058877e+01 -1.7614403882476427e+01 -1.3442874718800081e+02 0 0 0
6499 186 4 0.0000000000000000e+00 -5.8165294063858873e+01 -2.5521636530638734e+01 -1.3134781034253740e+02 0 0 0
6500 186 3 0.0000000000000000e+00 -5.2817704387367399e+01 -1.7719461014922068e+01 -1.3351759721811376e+02 0 0 0
6501 186 4 0.0000000000000000e+00 -4.3633214924900194e+01 -1.5044016297274606e+01 -1.3450502044236046e+02 0 0 0
4739 136 4 0.0000000000000000e+00 -3.4234000936831045e+01 -2.1494373497422060e+01 -1.3167586965087401e+02 0 0 0
4738 136 4 0.0000000000000000e+00 -2.8745672239545257e+01 -1.4450579712340486e+01 -1.3586182888271222e+02 0 0 0
2521 73 2 0.0000000000000000e+00 -1.3786906035982378e+02 -1.0082163364314958e+01 -1.3060134097206770e+02 0 0 0
2522 73 2 0.0000000000000000e+00 -1.2775257321209104e+02 -1.2269277509032355e+01 -1.3096495698394571e+02 0 0 0
2523 73 2 0.0000000000000000e+00 -1.1914672168180668e+02 -8.3592326617748558e+00 -1.3207473175391175e+02 0 0 0
6494 186 4 0.0000000000000000e+00 -1.0163246175347359e+02 -3.3325795498893522e+00 -1.3186102331419553e+02 0 0 0
6495 186 4 0.0000000000000000e+00 -9.4156877041552249e+01 -9.5473941598151697e+00 -1.3444719454639264e+02 0 0 0
2550 73 2 0.0000000000000000e+00 -7.3757201577221423e+01 -9.2550986412420038e+00 -1.3024233259256741e+02 0 0 0
5539 159 4 0.0000000000000000e+00 -6.5435696422818793e+01 -1.1199773212962092e+00 -1.3266912037206288e+02 0 0 0
1626 47 2 0.0000000000000000e+00 -5.2705642867599515e+01 -3.6310796642442211e+00 -1.3332565566048748e+02 0 0 0
1625 47 2 0.0000000000000000e+00 -4.7902769429375816e+01 8.8836563024444287e-02 -1.4152378986829979e+02 0 0 0
1623 47 2 0.0000000000000000e+00 -3.0912660477969876e+01 -4.1450356640243058e+00 -1.3628423127680267e+02 0 0 0
5423 155 4 0.0000000000000000e+00 -1.2455047227878816e+02 5.1003362214997472e-01 -1.3437929832921068e+02 0 0 0
6493 186 3 0.0000000000000000e+00 -1.0674162842729187e+02 5.3203089752526767e+00 -1.3146391861727719e+02 0 0 0
6492 186 4 0.0000000000000000e+00 -1.1372786167521306e+02 1.2635137228252198e+01 -1.2998296137997227e+02 0 0 0
5531 159 4 0.0000000000000000e+00 -9.2495961720471385e+01 9.3363499077173309e+00 -1.2920076511543911e+02 0 0 0
5537 159 4 0.0000000000000000e+00 -5.8599353420768878e+01 8.2018003709435430e+00 -1.3910335234383891e+02 0 0 0
4547 130 3 0.0000000000000000e+00 -3.7721361192882107e+01 4.0447664671274550e+00 -1.3550148906026294e+02 0 0 0
3021 87 1 0.0000000000000000e+00 -4.3692153525206457e+01 1.2873284824528712e+01 -1.3444282129000754e+02 0 0 0
6511 187 4 0.0000000000000000e+00 -5.0492175697617370e+01 -9.9139485439309269e+01 -1.2489647521248257e+02 0 0 0
6512 187 4 0.0000000000000000e+00 -5.4242541385751998e+01 -9.2305273835293363e+01 -1.1850777054305659e+02 0 0 0
2084 60 2 0.0000000000000000e+00 -3.7123191670741392e+01 -8.2861363084519240e+01 -1.1639038050384677e+02 0 0 0
2632 76 2 0.0000000000000000e+00 -5.0521265610345381e+01 -7.2120179714365563e+01 -1.1972020440456247e+02 0 0 0
2085 60 2 0.0000000000000000e+00 -3.2756180754586502e+01 -7.9590185230655024e+01 -1.2473455593304030e+02 0 0 0
4745 136 4 0.0000000000000000e+00 -3.1752697205252879e+01 -6.8814804009889599e+01 -1.1739409362088335e+02 0 0 0
2630 76 2 0.0000000000000000e+00 -6.4867692000002663e+01 -5.7968450270540629e+01 -1.2066982473910826e+02 0 0 0
2631 76 2 0.0000000000000000e+00 -5.6695881419803726e+01 -6.3734062163025840e+01 -1.2062668551725176e+02 0 0 0
4747 136 4 0.0000000000000000e+00 -4.6944567544238261e+01 -5.8762268781382616e+01 -1.1615852149141656e+02 0 0 0
4744 136 4 0.0000000000000000e+00 -3.2646271715063079e+01 -6.1853320160574491e+01 -1.2436958110162709e+02 0 0 0
2629 76 1 0.0000000000000000e+00 -6.8698662121483437e+01 -4.8696974274054789e+01 -1.2128903759019602e+02 0 0 0
4749 136 4 0.0000000000000000e+00 -5.8486387055751322e+01 -4.3464877025104961e+01 -1.1624980629663879e+02 0 0 0
2906 84 2 0.0000000000000000e+00 -8.5165412688772619e+01 -3.5324228327906958e+01 -1.2003234335537533e+02 0 0 0
4750 136 3 0.0000000000000000e+00 -6.7035940976335652e+01 -3.7991986554694876e+01 -1.1792889152721580e+02 0 0 0
2907 84 2 0.0000000000000000e+00 -7.7257004244645671e+01 -2.8817882355153376e+01 -1.2073046109561615e+02 0 0 0
2554 73 2 0.0000000000000000e+00 -5.7519419250882635e+01 -3.6374669615514925e+01 -1.2652732140234693e+02 0 0 0
2553 73 2 0.0000000000000000e+00 -5.8591031854919351e+01 -2.8467189062447144e+01 -1.2022697923195892e+02 0 0 0
4728 136 4 0.0000000000000000e+00 -3.8235064000273489e+01 -3.4582862159312647e+01 -1.1472438863409899e+02 0 0 0
3745 107 4 0.0000000000000000e+00 -1.2535188765223813e+02 -1.8752014484124683e+01 -1.1874976849602727e+02 0 0 0
1787 52 2 0.0000000000000000e+00 -1.1310127615255236e+02 -2.1015414478317801e+01 -1.2635297937095314e+02 0 0 0
1788 52 2 0.0000000000000000e+00 -1.1584482634881917e+02 -1.3720857984654954e+01 -1.1931051113400935e+02 0 0 0
6256 179 4 0.0000000000000000e+00 -9.7155045171450098e+01 -2.2135603923968223e+01 -1.1898450353872740e+02 0 0 0
6257 179 4 0.0000000000000000e+00 -1.0228060172226786e+02 -1.4045891386862401e+01 -1.1699777867356610e+02 0 0 0
2908 84 2 0.0000000000000000e+00 -7.4649645846155579e+01 -2.1436554187291723e+01 -1.1479584153241534e+02 0 0 0
2552 73 1 0.0000000000000000e+00 -5.8069817057311639e+01 -1.9011989789397482e+01 -1.2335989182174100e+02 0 0 0
4727 136 4 0.0000000000000000e+00 -4.3238573401931319e+01 -2.5702879425716947e+01 -1.1721602794962214e+02 0 0 0
4726 136 4 0.0000000000000000e+00 -4.4900022967338352e+01 -1.7371416756325377e+01 -1.2247350294920956e+02 0 0 0
6507 186 3 0.0000000000000000e+00 -2.5960983203927384e+01 -2.6642161127127256e+01 -1.1502229293300591e+02 0 0 0
6506 186 4 0.0000000000000000e+00 -2.4163381088049668e+01 -2.6040586876495418e+01 -1.2430660014070079e+02 0 0 0
5529 158 4 0.0000000000000000e+00 -1.5389989768697117e+02 -5.6389941953177019e+00 -1.1782110058004731e+02 0 0 0
5530 158 4 0.0000000000000000e+00 -1.4589398181388924e+02 -7.9582186039724689e+00 -1.2242588423313209e+02 0 0 0
1789 52 1 0.0000000000000000e+00 -1.2139192801661559e+02 -6.2958833926144200e+00 -1.1622315704217905e+02 0 0 0
2524 73 1 0.0000000000000000e+00 -1.1332949023123484e+02 -2.4804279814499717e+00 -1.2667581047126056e+02 0 0 0
2525 73 2 0.0000000000000000e+00 -1.1317632625119036e+02 -8.3866640541556503e-01 -1.1647643896165077e+02 0 0 0
2548 73 2 0.0000000000000000e+00 -8.2954013631984282e+01 -7.1374298278396395e+00 -1.1502945666619699e+02 0 0 0
2549 73 2 0.0000000000000000e+00 -7.7077774025935753e+01 -3.7987639048008521e+00 -1.2205637746792216e+02 0 0 0
2551 73 2 0.0000000000000000e+00 -6.5481007525638120e+01 -1.2701903096515190e+01 -1.2642222311022574e+02 0 0 0
5541 159 3 0.0000000000000000e+00 -6.5931424036044788e+01 -4.3622765535628238e-01 -1.1573539789208859e+02 0 0 0
1628 47 1 0.0000000000000000e+00 -6.2415163141081976e+01 -1.0723653756321177e+01 -1.1773810496539087e+02 0 0 0
1627 47 2 0.0000000000000000e+00 -5.7399259751024083e+01 -6.2778480926604479e+00 -1.2507622008774743e+02 0 0 0
4546 130 4 0.0000000000000000e+00 -3.4479940200197312e+01 1.4463796998471443e-01 -1.2629344966244348e+02 0 0 0
4545 130 4 0.0000000000000000e+00 -2.9251743950496579e+01 -6.4247068515134593e+00 -1.2028589033498658e+02 0 0 0
5422 155 3 0.0000000000000000e+00 -1.2357172107497762e+02 6.1472364889960041e-01 -1.2456273776434219e+02 0 0 0
5421 155 4 0.0000000000000000e+00 -1.2006305951523910e+02 9.3781990176831744e+00 -1.2228443685047094e+02 0 0 0
5420 155 4 0.0000000000000000e+00 -1.1125146074811053e+02 1.2522211868578493e+01 -1.1863503083872007e+02 0 0 0
5907 169 4 0.0000000000000000e+00 -7.9013020124793655e+01 1.1046679931017287e+01 -1.1880261254715893e+02 0 0 0
5540 159 4 0.0000000000000000e+00 -6.7100356945364695e+01 4.4634404376739907e+00 -1.2487018511251581e+02 0 0 0
3022 87 2 0.0000000000000000e+00 -4.4774020203218264e+01 8.6085574558990885e+00 -1.2587582378251767e+02 0 0 0
3023 87 2 0.0000000000000000e+00 -5.0838315173509081e+01 7.8586897007591592e+00 -1.1815029328505514e+02 0 0 0
6183 177 4 0.0000000000000000e+00 -3.7657486221359811e+01 7.3414809037929576e+00 -1.1867280710906299e+02 0 0 0
6184 177 4 0.0000000000000000e+00 -2.8274225973722039e+01 7.0823570319314522e+00 -1.2353046143134361e+02 0 0 0
6324 181 4 0.0000000000000000e+00 -7.0250704194270227e+01 -8.3105580546698832e+01 -1.0076764028466219e+02 0 0 0
6323 181 4 0.0000000000000000e+00 -6.5711560846099644e+01 -8.1523435976727939e+01 -1.0962539967695844e+02 0 0 0
6513 187 4 0.0000000000000000e+00 -5.6172527486083851e+01 -8.8654503773955724e+01 -1.0964724252524883e+02 0 0 0
2082 60 2 0.0000000000000000e+00 -4.9915934303577473e+01 -8.4763460718949759e+01 -1.0352643830675981e+02 0 0 0
2083 60 1 0.0000000000000000e+00 -4.6505393054042138e+01 -8.5745653085840374e+01 -1.1344540520742635e+02 0 0 0
1540 44 2 0.0000000000000000e+00 -9.5027603080293929e+01 -7.6992814945803175e+01 -1.0702859145994650e+02 0 0 0
1539 44 2 0.0000000000000000e+00 -8.5307290057113377e+01 -7.9802403552562524e+01 -1.0904117602090652e+02 0 0 0
1538 44 2 0.0000000000000000e+00 -7.6127416660790345e+01 -7.5920697904874928e+01 -1.0922220895092438e+02 0 0 0
6322 181 4 0.0000000000000000e+00 -6.3521016537574056e+01 -7.1778391135309690e+01 -1.1029641091466610e+02 0 0 0
6514 187 3 0.0000000000000000e+00 -5.5206727266741240e+01 -7.8803752567786702e+01 -1.1206522673360206e+02 0 0 0
6515 187 4 0.0000000000000000e+00 -5.3487296585418513e+01 -6.9056717574644779e+01 -1.0960226986178783e+02 0 0 0
2633 76 2 0.0000000000000000e+00 -4.3908812758678209e+01 -7.4869753501738401e+01 -1.1238153922315099e+02 0 0 0
2634 76 2 0.0000000000000000e+00 -3.7873466200269981e+01 -7.9130964799586337e+01 -1.0581578287591780e+02 0 0 0
6319 181 4 0.0000000000000000e+00 -8.8201593637705102e+01 -6.1777236682377769e+01 -1.0575292859003456e+02 0 0 0
6320 181 4 0.0000000000000000e+00 -7.8516995683716900e+01 -6.0327543542173892e+01 -1.0746768547280917e+02 0 0 0
6321 181 4 0.0000000000000000e+00 -7.1451692230413684e+01 -6.6737050818783416e+01 -1.0633452029140237e+02 0 0 0
6516 187 4 0.0000000000000000e+00 -5.7919908739085876e+01 -6.0255374266295924e+01 -1.0944969381336384e+02 0 0 0
4746 136 4 0.0000000000000000e+00 -3.9091830980173420e+01 -6.4250104731837411e+01 -1.1213314582850523e+02 0 0 0
4844 139 4 0.0000000000000000e+00 -3.3919075319842491e+01 -6.1450790518775833e+01 -1.0387638034200462e+02 0 0 0
1636 47 2 0.0000000000000000e+00 -2.5741259616527479e+01 -5.4608843380538019e+01 -1.0368412730533369e+02 0 0 0
2381 69 2 0.0000000000000000e+00 -2.5675234391589282e+01 -6.5508976763921666e+01 -1.0958727814762608e+02 0 0 0
6316 181 4 0.0000000000000000e+00 -8.7959134384619986e+01 -5.1661508729038403e+01 -1.0139363481196631e+02 0 0 0
6315 181 4 0.0000000000000000e+00 -7.8288169439024443e+01 -4.9377982404705961e+01 -1.0284923881592870e+02 0 0 0
6518 187 4 0.0000000000000000e+00 -6.4906097847383109e+01 -4.3509217083995743e+01 -1.0367895858886567e+02 0 0 0
4748 136 4 0.0000000000000000e+00 -5.1987754340810525e+01 -5.0141427166099469e+01 -1.1304435211918603e+02 0 0 0
6517 187 4 0.0000000000000000e+00 -6.4757732959933278e+01 -5.2618122763756944e+01 -1.0794196545582848e+02 0 0 0
1634 47 2 0.0000000000000000e+00 -4.2021620616171475e+01 -4.7042514433598051e+01 -1.0603833153721004e+02 0 0 0
1633 47 2 0.0000000000000000e+00 -4.9805239621370411e+01 -4.1561785164655980e+01 -1.0785810154669467e+02 0 0 0
4730 136 4 0.0000000000000000e+00 -2.4371281790836335e+01 -4.7888827526946685e+01 -1.1257860910410166e+02 0 0 0
1635 47 1 0.0000000000000000e+00 -3.4149864823457520e+01 -5.1403081181578486e+01 -1.0873407408266129e+02 0 0 0
4729 136 3 0.0000000000000000e+00 -3.0313808655841946e+01 -4.0493093893979932e+01 -1.1092621707288770e+02 0 0 0
6253 179 4 0.0000000000000000e+00 -1.1680088435242291e+02 -3.9088937129870750e+01 -1.0461081000489818e+02 0 0 0
6254 179 4 0.0000000000000000e+00 -1.1186728867764309e+02 -3.2252583170832871e+01 -1.1029487362758469e+02 0 0 0
2544 73 2 0.0000000000000000e+00 -1.1246931719261637e+02 -2.8057137453907451e+01 -1.0111674450112436e+02 0 0 0
6255 179 3 0.0000000000000000e+00 -1.0339706385681407e+02 -2.8523764415765928e+01 -1.1394969238888083e+02 0 0 0
6336 182 4 0.0000000000000000e+00 -9.2971997783809584e+01 -2.7566280404612684e+01 -1.1071061971922745e+02 0 0 0
6337 182 4 0.0000000000000000e+00 -9.6696517473496030e+01 -2.7941202941888346e+01 -1.0152056995167609e+02 0 0 0
4752 136 4 0.0000000000000000e+00 -8.1246746405038564e+01 -2.9276631194911790e+01 -1.0673711173824917e+02 0 0 0
4751 136 4 0.0000000000000000e+00 -7.3599447799948564e+01 -3.3753302318848633e+01 -1.1169372292129310e+02 0 0 0
1631 47 2 0.0000000000000000e+00 -6.2933447266218899e+01 -2.8709644340268671e+01 -1.0172572382967174e+02 0 0 0
1632 47 2 0.0000000000000000e+00 -5.7265624000847218e+01 -3.6671776888141061e+01 -1.0502664577435036e+02 0 0 0
5129 147 4 0.0000000000000000e+00 -3.7649131390609369e+01 -3.0428725758574195e+01 -1.0315488195362745e+02 0 0 0
5545 159 4 0.0000000000000000e+00 -4.9115606020754001e+01 -2.8911180615380911e+01 -1.0933499696638877e+02 0 0 0
6508 186 4 0.0000000000000000e+00 -2.5282944841356311e+01 -3.0514565896782671e+01 -1.0617510427735412e+02 0 0 0
2204 63 2 0.0000000000000000e+00 -1.6363337091258512e+02 -1.3375313098801783e+01 -1.0792235097506972e+02 0 0 0
2205 63 2 0.0000000000000000e+00 -1.5460089970408418e+02 -1.5894259238884599e+01 -1.1121112786137357e+02 0 0 0
3744 107 4 0.0000000000000000e+00 -1.2225693226545674e+02 -2.3074219938482930e+01 -1.1013993174354312e+02 0 0 0
2545 73 1 0.0000000000000000e+00 -1.0483681738799646e+02 -2.2618994100539911e+01 -1.0471134214846623e+02 0 0 0
2546 73 2 0.0000000000000000e+00 -9.6849505381476803e+01 -1.7525728188553497e+01 -1.0791577533140470e+02 0 0 0
6520 187 4 0.0000000000000000e+00 -7.3808675833258206e+01 -2.6399901913482310e+01 -1.0167975573707906e+02 0 0 0
2909 84 1 0.0000000000000000e+00 -7.5544514216103465e+01 -1.3359022349626885e+01 -1.0917740860224364e+02 0 0 0
1630 47 2 0.0000000000000000e+00 -6.2576281939633404e+01 -2.1032292383537282e+01 -1.0748163585513980e+02 0 0 0
3027 87 2 0.0000000000000000e+00 -4.1989410254093784e+01 -1.4546572114831996e+01 -1.1337012445572329e+02 0 0 0
5544 159 4 0.0000000000000000e+00 -5.1035201675157921e+01 -1.9336326291143344e+01 -1.1168558847605186e+02 0 0 0
5130 147 4 0.0000000000000000e+00 -3.7802505382638074e+01 -2.0681303427792272e+01 -1.0470814733655554e+02 0 0 0
3028 87 1 0.0000000000000000e+00 -3.2236529953258433e+01 -1.7109413997412165e+01 -1.1385679165352755e+02 0 0 0
2203 63 2 0.0000000000000000e+00 -1.6813499300489775e+02 -6.1177949709890731e+00 -1.0252456849636052e+02 0 0 0
5528 158 4 0.0000000000000000e+00 -1.5719251198093096e+02 -3.5359803035526123e+00 -1.0824912667325118e+02 0 0 0
2527 73 2 0.0000000000000000e+00 -1.2374058071623745e+02 -3.3444533109923986e+00 -1.0200578365362063e+02 0 0 0
1790 52 2 0.0000000000000000e+00 -1.2800143087031444e+02 5.1378092133513797e-02 -1.1293183462408687e+02 0 0 0
6258 179 4 0.0000000000000000e+00 -1.0879750235807897e+02 -9.9138661975908757e+00 -1.1105471721437195e+02 0 0 0
6259 179 4 0.0000000000000000e+00 -1.1398916260128181e+02 -9.0308873897012010e+00 -1.0286935095550345e+02 0 0 0
2547 73 2 0.0000000000000000e+00 -9.1908615465870454e+01 -1.1319480169801340e+01 -1.1366828973957833e+02 0 0 0
2910 84 2 0.0000000000000000e+00 -7.3730254764489530e+01 -3.8089217808726197e+00 -1.0675089202441779e+02 0 0 0
1629 47 2 0.0000000000000000e+00 -6.3652231830098216e+01 -1.1072961359193368e+01 -1.0767257651025432e+02 0 0 0
5542 159 4 0.0000000000000000e+00 -5.6534453899970288e+01 -4.2881240907872603e-01 -1.1245271587323509e+02 0 0 0
5543 159 4 0.0000000000000000e+00 -5.1989609754140282e+01 -9.4524881797599267e+00 -1.1360989611210785e+02 0 0 0
3026 87 2 0.0000000000000000e+00 -4.2545297812125021e+01 -4.2838133722536513e+00 -1.1278802268682072e+02 0 0 0
5131 147 4 0.0000000000000000e+00 -3.6032462525830113e+01 -1.1443716462698761e+01 -1.0538932318728114e+02 0 0 0
5132 147 4 0.0000000000000000e+00 -3.1919476614137384e+01 -4.3188428137673220e+00 -1.1067326671582329e+02 0 0 0
5122 147 4 0.0000000000000000e+00 -2.8745554019085631e+01 -2.9968948371121051e-01 -1.0207388931579095e+02 0 0 0
3029 87 2 0.0000000000000000e+00 -2.4896735178900308e+01 -1.2720688269699396e+01 -1.0903819848774432e+02 0 0 0
6300 180 4 0.0000000000000000e+00 -1.6628384633920030e+02 6.3768375354345075e+00 -1.1090955371319973e+02 0 0 0
2202 63 1 0.0000000000000000e+00 -1.6969977276259525e+02 4.1269547011148333e+00 -1.0087728842983446e+02 0 0 0
1791 52 2 0.0000000000000000e+00 -1.2627890995041382e+02 6.5360391775037119e+00 -1.0459953241976955e+02 0 0 0
2526 73 2 0.0000000000000000e+00 -1.1768684954351870e+02 1.6304889141786167e+00 -1.0821838113864536e+02 0 0 0
6345 182 4 0.0000000000000000e+00 -9.9481613633577666e+01 1.2441696533660002e+01 -1.1001965781506989e+02 0 0 0
6344 182 4 0.0000000000000000e+00 -9.0584089222838401e+01 1.0743485870708879e+01 -1.0455614129162772e+02 0 0 0
5909 169 4 0.0000000000000000e+00 -8.2267082844794032e+01 2.6591398766271999e+00 -1.0300148008739613e+02 0 0 0
5908 169 4 0.0000000000000000e+00 -8.0713926575407541e+01 3.8106866446347811e+00 -1.1256148866658744e+02 0 0 0
2911 84 2 0.0000000000000000e+00 -6.9477614708449508e+01 2.4652218639536021e+00 -1.0045842028595578e+02 0 0 0
1801 52 2 0.0000000000000000e+00 -7.2478449268982303e+01 1.2370715324783436e+01 -1.0152611996986595e+02 0 0 0
3024 87 2 0.0000000000000000e+00 -5.4208172542046697e+01 8.9692909153932643e+00 -1.0896398915606315e+02 0 0 0
3025 87 2 0.0000000000000000e+00 -4.4754095563440785e+01 4.8466725354318898e+00 -1.0992855998524509e+02 0 0 0
3392 97 1 0.0000000000000000e+00 -3.6592005859510060e+01 7.9026587105264738e+00 -1.0372163088662879e+02 0 0 0
3393 97 2 0.0000000000000000e+00 -2.6239987970950430e+01 8.4772203224258771e+00 -1.0620399304270263e+02 0 0 0
2206 64 2 0.0000000000000000e+00 -8.5754739312493371e+01 -8.8675075937087897e+01 -9.6726239978632421e+01 0 0 0
6325 181 3 0.0000000000000000e+00 -7.3485625410644190e+01 -8.4019993398357784e+01 -9.1743831272141691e+01 0 0 0
2081 60 2 0.0000000000000000e+00 -5.7537459445544933e+01 -8.4539909774928233e+01 -9.7592205849195011e+01 0 0 0
2636 76 1 0.0000000000000000e+00 -2.7213402965771895e+01 -8.4863749526791395e+01 -9.0607901821885420e+01 0 0 0
2635 76 2 0.0000000000000000e+00 -3.1194293213640147e+01 -8.3949087026438718e+01 -9.9835819938826859e+01 0 0 0
2208 64 2 0.0000000000000000e+00 -9.4100502197091430e+01 -7.1790875275271475e+01 -9.3113590746961123e+01 0 0 0
2207 64 2 0.0000000000000000e+00 -9.1862556424342785e+01 -8.0563081595316845e+01 -9.6255697751093564e+01 0 0 0
1537 44 1 0.0000000000000000e+00 -7.8032228212359342e+01 -7.6707833962164969e+01 -9.9090420133050813e+01 0 0 0
1536 44 2 0.0000000000000000e+00 -7.1910213587427862e+01 -7.3749790410512645e+01 -9.2260622077083639e+01 0 0 0
2080 60 2 0.0000000000000000e+00 -5.8907866683061883e+01 -7.4509832482230124e+01 -9.7891512141369248e+01 0 0 0
1535 44 2 0.0000000000000000e+00 -6.2860449921217956e+01 -7.1630335034190622e+01 -8.8066197109283664e+01 0 0 0
4841 139 3 0.0000000000000000e+00 -4.6922616426181399e+01 -7.7087899367455435e+01 -9.1210409781845399e+01 0 0 0
4842 139 4 0.0000000000000000e+00 -4.7108745248977471e+01 -7.0080052732918546e+01 -9.8065124371967741e+01 0 0 0
4845 139 4 0.0000000000000000e+00 -2.9333172125930723e+01 -6.9069897398834797e+01 -9.9282213107902336e+01 0 0 0
2218 64 2 0.0000000000000000e+00 -2.4836321948707159e+01 -6.8742102451984422e+01 -8.9934417799059787e+01 0 0 0
4846 139 4 0.0000000000000000e+00 -2.4198085748233900e+01 -7.7478261417556368e+01 -9.7573108877109519e+01 0 0 0
6231 179 4 0.0000000000000000e+00 -1.1525783877020416e+02 -6.4739441405015839e+01 -9.1593573173737312e+01 0 0 0
6318 181 3 0.0000000000000000e+00 -9.6141763470414872e+01 -6.3828700897337136e+01 -9.9402289801996957e+01 0 0 0
6317 181 4 0.0000000000000000e+00 -9.4006125638819469e+01 -5.5217591889815296e+01 -9.4565223654205866e+01 0 0 0
2209 64 1 0.0000000000000000e+00 -9.0462724624258300e+01 -6.3161607146027698e+01 -8.9595544581095936e+01 0 0 0
1378 40 2 0.0000000000000000e+00 -7.3335691016834787e+01 -5.7555499379371113e+01 -9.0203646397897273e+01 0 0 0
6314 181 4 0.0000000000000000e+00 -7.0042279245290715e+01 -5.4048798546939750e+01 -9.9485915409314714e+01 0 0 0
1534 44 2 0.0000000000000000e+00 -5.6214729188012633e+01 -6.4907181257744838e+01 -8.8977148835651505e+01 0 0 0
2079 60 2 0.0000000000000000e+00 -6.1013223800345905e+01 -6.4752692793874459e+01 -9.8288637600378607e+01 0 0 0
2078 60 2 0.0000000000000000e+00 -5.7614236397247836e+01 -5.5683136134650248e+01 -9.7745039664555378e+01 0 0 0
4843 139 4 0.0000000000000000e+00 -4.2824368135603557e+01 -6.1334526497025010e+01 -9.9660526161791950e+01 0 0 0
1533 44 2 0.0000000000000000e+00 -4.7218526078888885e+01 -6.0670836762650332e+01 -8.8661825290046423e+01 0 0 0
1532 44 2 0.0000000000000000e+00 -3.7318606309717339e+01 -5.5970444389916764e+01 -8.8236697108301613e+01 0 0 0
2217 64 2 0.0000000000000000e+00 -3.4229055466701546e+01 -6.5788174977667040e+01 -8.6874816797428295e+01 0 0 0
2541 73 2 0.0000000000000000e+00 -1.3675794109350824e+02 -4.1224357677112408e+01 -9.2001214554054968e+01 0 0 0
6251 179 4 0.0000000000000000e+00 -1.1990589669949330e+02 -4.7842486290524647e+01 -8.6770012443320098e+01 0 0 0
6252 179 4 0.0000000000000000e+00 -1.1669440794645645e+02 -4.2659684939544739e+01 -9.5778541235713291e+01 0 0 0
2810 81 2 0.0000000000000000e+00 -1.1132627260561701e+02 -4.0939083165716603e+01 -8.7468692165434163e+01 0 0 0
2808 81 2 0.0000000000000000e+00 -1.0428692713702037e+02 -5.1889038616418922e+01 -9.5031428797748930e+01 0 0 0
2809 81 2 0.0000000000000000e+00 -1.0412102467207529e+02 -4.1961006087203160e+01 -9.4657082571463363e+01 0 0 0
1379 40 2 0.0000000000000000e+00 -8.2120178049634802e+01 -5.2843055604315062e+01 -9.1684690779056183e+01 0 0 0
1380 40 2 0.0000000000000000e+00 -8.1377179322076699e+01 -4.3082339607742199e+01 -9.0917714860460990e+01 0 0 0
6313 181 4 0.0000000000000000e+00 -6.9320311112290298e+01 -4.7438431456073268e+01 -9.2104756281083652e+01 0 0 0
2077 60 2 0.0000000000000000e+00 -5.6436957868674305e+01 -4.6261174513224610e+01 -9.8007046865737465e+01 0 0 0
6311 181 3 0.0000000000000000e+00 -5.1309058546346542e+01 -4.4997668099794517e+01 -8.7806814481709708e+01 0 0 0
6312 181 4 0.0000000000000000e+00 -6.0970409577783236e+01 -4.6714168041776929e+01 -8.6646687384086093e+01 0 0 0
6310 181 4 0.0000000000000000e+00 -4.1458097825741177e+01 -4.2926391445245649e+01 -8.8379124878331439e+01 0 0 0
1531 44 2 0.0000000000000000e+00 -3.2682211142423114e+01 -4.7826075365924673e+01 -9.0960007283127226e+01 0 0 0
2543 73 2 0.0000000000000000e+00 -1.2250216613934838e+02 -3.0487395204610500e+01 -1.0004734096110461e+02 0 0 0
2542 73 2 0.0000000000000000e+00 -1.3056118663013825e+02 -3.5613106448969432e+01 -9.6749227112973628e+01 0 0 0
3741 107 4 0.0000000000000000e+00 -1.1115028093809381e+02 -2.8176275992328911e+01 -8.6605523927893913e+01 0 0 0
4753 136 4 0.0000000000000000e+00 -8.6292263426258870e+01 -2.9338803012215646e+01 -9.7535188339415811e+01 0 0 0
4754 136 4 0.0000000000000000e+00 -8.9912102448366653e+01 -3.2319082921109690e+01 -8.8705644222565041e+01 0 0 0
6519 187 4 0.0000000000000000e+00 -7.0258524793910908e+01 -3.5488497407787285e+01 -9.9764356763193220e+01 0 0 0
1381 40 2 0.0000000000000000e+00 -7.6493657939296952e+01 -3.4302591099454638e+01 -9.1209923540301702e+01 0 0 0
5548 159 3 0.0000000000000000e+00 -6.6171135932103866e+01 -3.7939402400414771e+01 -8.9681432158703075e+01 0 0 0
5547 159 4 0.0000000000000000e+00 -5.9407418386597477e+01 -3.4082501926415027e+01 -9.4706781245524368e+01 0 0 0
5546 159 4 0.0000000000000000e+00 -5.1260794233202105e+01 -3.0332015750208601e+01 -9.9764651938969294e+01 0 0 0
2076 60 1 0.0000000000000000e+00 -4.9274550882075744e+01 -4.0011926031673845e+01 -9.7966300883344729e+01 0 0 0
2075 60 2 0.0000000000000000e+00 -4.7025019451584924e+01 -3.4098033785554954e+01 -9.0574713273307935e+01 0 0 0
5128 147 3 0.0000000000000000e+00 -3.8363063213016673e+01 -3.8072651645991904e+01 -9.7035906114647133e+01 0 0 0
1530 44 1 0.0000000000000000e+00 -2.8152261282573548e+01 -3.8535446135304596e+01 -9.2187485636579368e+01 0 0 0
1529 44 2 0.0000000000000000e+00 -2.9495477356437828e+01 -2.9437170832011113e+01 -9.5218159000870514e+01 0 0 0
5127 147 4 0.0000000000000000e+00 -3.7079063239443720e+01 -3.3709045001339327e+01 -8.8905903349099063e+01 0 0 0
3743 107 4 0.0000000000000000e+00 -1.2233875363409537e+02 -2.0000091164123209e+01 -1.0020889167895029e+02 0 0 0
2529 73 2 0.0000000000000000e+00 -1.3096302724443714e+02 -1.7515833524048695e+01 -9.1064963486229090e+01 0 0 0
3742 107 3 0.0000000000000000e+00 -1.1898584258394889e+02 -2.5702543966250889e+01 -9.3246618313495119e+01 0 0 0
6338 182 4 0.0000000000000000e+00 -9.9523824426344078e+01 -2.0218654804410590e+01 -9.5132332892925419e+01 0 0 0
6521 187 3 0.0000000000000000e+00 -7.1687067170765118e+01 -1.7050276419543700e+01 -9.9367871766897437e+01 0 0 0
1382 40 2 0.0000000000000000e+00 -7.0315804131702066e+01 -2.6481635405354140e+01 -9.1480831549635241e+01 0 0 0
1528 44 2 0.0000000000000000e+00 -3.1767182582304226e+01 -2.0128599749945920e+01 -9.5670091102848545e+01 0 0 0
5126 147 4 0.0000000000000000e+00 -3.4700919281895402e+01 -2.4035291406138555e+01 -8.6877016700616252e+01 0 0 0
5125 147 4 0.0000000000000000e+00 -2.4734989405249063e+01 -2.2493806112015534e+01 -8.6658569375022509e+01 0 0 0
2930 84 1 0.0000000000000000e+00 -1.3490885306361054e+02 -2.1093197602123310e+00 -8.9377748981346329e+01 0 0 0
2931 84 2 0.0000000000000000e+00 -1.4295908678112534e+02 -7.1857670572202936e+00 -8.7182412980615680e+01 0 0 0
2528 73 2 0.0000000000000000e+00 -1.2930957191793374e+02 -9.2923887513726768e+00 -9.6277206053660450e+01 0 0 0
6260 179 4 0.0000000000000000e+00 -1.1925102138820813e+02 -1.1383556116798500e+01 -9.5111812547673694e+01 0 0 0
2929 84 2 0.0000000000000000e+00 -1.2566162405523733e+02 7.7841171354017011e-02 -9.1929436432945607e+01 0 0 0
6339 182 3 0.0000000000000000e+00 -1.0200299437017135e+02 -1.3087557281590366e+01 -8.8164853073977397e+01 0 0 0
1796 52 1 0.0000000000000000e+00 -1.0070578996390059e+02 -6.0606151056210438e+00 -9.6267735352413936e+01 0 0 0
1797 52 2 0.0000000000000000e+00 -9.1939489654218249e+01 -5.1654889530237655e+00 -9.1389959328713374e+01 0 0 0
5910 169 4 0.0000000000000000e+00 -7.9579928876288108e+01 -4.4509040315640176e+00 -9.6704614091146027e+01 0 0 0
5911 169 4 0.0000000000000000e+00 -8.0853447996983490e+01 -9.8846996086423538e+00 -8.8551169374976610e+01 0 0 0