LAMMPS data file via write_data, version 5 Jun 2019, timestep = 400000000

7000 atoms
4 atom types
7292 bonds
3 bond types
6600 angles
2 angle types

-5.0000000000000000e+02 5.0000000000000000e+02 xlo xhi
-5.0000000000000000e+02 5.0000000000000000e+02 ylo yhi
-5.0000000000000000e+02 5.0000000000000000e+02 zlo zhi

Masses

1 1000
2 1000
3 1000
4 1000

Pair Coeffs # lj/cut

1 0.296 10
2 0.296 10
3 0.296 10
4 0.296 10

Angle Coeffs # cosine

1 2
2 2

Atoms # full

6191 177 4 0.0000000000000000e+00 -7.5198884040334747e+01 -4.2415752928096975e+00 -1.5089064101798499e+02 0 0 0
6195 177 4 0.0000000000000000e+00 -9.9452091807471390e+01 2.5847031214363132e+00 -1.5129363192890690e+02 0 0 0
2554 73 2 0.0000000000000000e+00 -9.1397962397955681e+01 -4.2027282791191936e+01 -1.3463137063145302e+02 0 0 0
5425 155 4 0.0000000000000000e+00 -1.4174182746395041e+02 -1.9462223257248688e+01 -1.4177415445752482e+02 0 0 0
2066 60 2 0.0000000000000000e+00 -1.2043222342666451e+02 -1.6544425668482955e+01 -1.3596618556650722e+02 0 0 0
2067 60 2 0.0000000000000000e+00 -1.1424633021204444e+02 -2.3400234387917010e+01 -1.3894698437626309e+02 0 0 0
2068 60 2 0.0000000000000000e+00 -1.0473900397475751e+02 -2.4959324853649186e+01 -1.3998718159283712e+02 0 0 0
2069 60 1 0.0000000000000000e+00 -9.7922273829873248e+01 -1.7900263825090359e+01 -1.3885194450634637e+02 0 0 0
5910 169 4 0.0000000000000000e+00 -1.0815231419579251e+02 -1.3151913053255834e+01 -1.3746539413424404e+02 0 0 0
1790 52 2 0.0000000000000000e+00 -1.4700623814007224e+02 -5.0012524765047219e+00 -1.3466596939348017e+02 0 0 0
1791 52 2 0.0000000000000000e+00 -1.3736046754688459e+02 -6.4187180838094786e+00 -1.3682114109061925e+02 0 0 0
1792 52 2 0.0000000000000000e+00 -1.2750340094532100e+02 -7.6612503192753438e+00 -1.3593972134331403e+02 0 0 0
5909 169 4 0.0000000000000000e+00 -1.1158306664211057e+02 -3.9008178494962547e+00 -1.4032382385872521e+02 0 0 0
6194 177 4 0.0000000000000000e+00 -9.9119542223522032e+01 -2.5074778551596921e+00 -1.4291546099369410e+02 0 0 0
6193 177 4 0.0000000000000000e+00 -9.0459185009487001e+01 -4.5357824572531769e+00 -1.4029172989947918e+02 0 0 0
6192 177 3 0.0000000000000000e+00 -8.1563086207124272e+01 -1.4435355360344759e+00 -1.4369696276609110e+02 0 0 0
585 17 1 0.0000000000000000e+00 -7.1711397273874212e+01 -5.3530148100225228e+00 -1.4083061584578655e+02 0 0 0
1787 52 2 0.0000000000000000e+00 -1.6349791048839802e+02 9.1052094830311603e+00 -1.4149589579675489e+02 0 0 0
1786 52 2 0.0000000000000000e+00 -1.7311073912770419e+02 1.0857351507899965e+01 -1.4311481371173457e+02 0 0 0
1788 52 2 0.0000000000000000e+00 -1.5629266394761657e+02 1.2375309538429814e+01 -1.3512007328753137e+02 0 0 0
1789 52 1 0.0000000000000000e+00 -1.5101006023607150e+02 4.3932629489198796e+00 -1.3525109741500660e+02 0 0 0
5908 169 4 0.0000000000000000e+00 -1.1053621240469251e+02 5.8539016868849902e+00 -1.3981070236632434e+02 0 0 0
5907 169 4 0.0000000000000000e+00 -1.0495465492952408e+02 1.3653739154461734e+01 -1.4067460188341465e+02 0 0 0
5532 159 4 0.0000000000000000e+00 -8.8545179876974501e+01 1.1515076240038894e+01 -1.3597685302461178e+02 0 0 0
6252 179 4 0.0000000000000000e+00 -7.9167836974538730e+01 -8.4145225266372123e+01 -1.2476676527398189e+02 0 0 0
6500 186 3 0.0000000000000000e+00 -8.1857522883890695e+01 -6.8688701702897617e+01 -1.2993488505062263e+02 0 0 0
6253 179 4 0.0000000000000000e+00 -8.1596480134729632e+01 -7.4887886711122690e+01 -1.2118819712694844e+02 0 0 0
2549 73 2 0.0000000000000000e+00 -6.9449485019615125e+01 -6.9557248667108482e+01 -1.2153397992340811e+02 0 0 0
6498 186 4 0.0000000000000000e+00 -1.0181276095530704e+02 -6.5800715895409624e+01 -1.3349481381440123e+02 0 0 0
6497 186 4 0.0000000000000000e+00 -1.0569824814647173e+02 -6.4163265255062797e+01 -1.2421590669205044e+02 0 0 0
6499 186 4 0.0000000000000000e+00 -9.1856047517682484e+01 -6.6843958081252282e+01 -1.3261167257088488e+02 0 0 0
2552 73 1 0.0000000000000000e+00 -8.1318091979388441e+01 -5.7599008130413530e+01 -1.2835176727355758e+02 0 0 0
6501 186 4 0.0000000000000000e+00 -7.2711124457496510e+01 -6.5199724766563889e+01 -1.3236559142223012e+02 0 0 0
2550 73 2 0.0000000000000000e+00 -7.1151450608675518e+01 -6.0054371511704069e+01 -1.2104548459321970e+02 0 0 0
2553 73 2 0.0000000000000000e+00 -8.3200320036684829e+01 -4.8611767331665227e+01 -1.3333679992804369e+02 0 0 0
2551 73 2 0.0000000000000000e+00 -7.4756189817462257e+01 -5.1216270855292606e+01 -1.2319621950968818e+02 0 0 0
2555 73 2 0.0000000000000000e+00 -9.9256330698717150e+01 -3.8415555652371395e+01 -1.3001287260700590e+02 0 0 0
5912 169 3 0.0000000000000000e+00 -9.7172060296417698e+01 -2.7210168858895951e+01 -1.3170309871925221e+02 0 0 0
5913 169 4 0.0000000000000000e+00 -8.9081959466317613e+01 -3.3282930051825787e+01 -1.3023801139201584e+02 0 0 0
5915 169 4 0.0000000000000000e+00 -7.0271867005519638e+01 -3.9142536051948490e+01 -1.2763758741793703e+02 0 0 0
5914 169 4 0.0000000000000000e+00 -8.0830294767507638e+01 -3.8684556909716335e+01 -1.2758507166299896e+02 0 0 0
4743 136 3 0.0000000000000000e+00 -8.0239606233372740e+01 -2.7156199146598436e+01 -1.2737090572796441e+02 0 0 0
5424 155 4 0.0000000000000000e+00 -1.4470200378808727e+02 -1.6156864505188736e+01 -1.3243803655896104e+02 0 0 0
1716 50 2 0.0000000000000000e+00 -1.3809466951856155e+02 -2.0171734584357566e+01 -1.2232926718463263e+02 0 0 0
6336 182 4 0.0000000000000000e+00 -1.0949800427325896e+02 -2.5017627019800436e+01 -1.2271269992955293e+02 0 0 0
5911 169 4 0.0000000000000000e+00 -1.0292331121749272e+02 -1.9029527884988116e+01 -1.3058886005220299e+02 0 0 0
2071 60 2 0.0000000000000000e+00 -9.0360456778314358e+01 -1.8633185247865832e+01 -1.2295644848408493e+02 0 0 0
2070 60 2 0.0000000000000000e+00 -9.0458960117912341e+01 -1.6125284843758244e+01 -1.3252565385659858e+02 0 0 0
4742 136 4 0.0000000000000000e+00 -7.4721643475992906e+01 -2.1982664312935388e+01 -1.3415320316643044e+02 0 0 0
2237 64 1 0.0000000000000000e+00 -7.8948330462208773e+01 -1.6970047416565347e+01 -1.2258340905652433e+02 0 0 0
2236 64 2 0.0000000000000000e+00 -7.1468051864926224e+01 -2.3166366094835581e+01 -1.2102439149805805e+02 0 0 0
5421 155 4 0.0000000000000000e+00 -1.6329340782888343e+02 -3.0136539829018053e-02 -1.3323136592530463e+02 0 0 0
5422 155 3 0.0000000000000000e+00 -1.5532422501471578e+02 -2.2564377905207560e+00 -1.2685534607269570e+02 0 0 0
5423 155 4 0.0000000000000000e+00 -1.4864556980992447e+02 -9.9675665483678273e+00 -1.2551762747919150e+02 0 0 0
1717 50 2 0.0000000000000000e+00 -1.3438405210928661e+02 -1.1453543370605246e+01 -1.2133352401380039e+02 0 0 0
1793 52 2 0.0000000000000000e+00 -1.1837826790055901e+02 -6.8143691516220768e+00 -1.3171446100946747e+02 0 0 0
1794 52 2 0.0000000000000000e+00 -1.0873778243855224e+02 -5.3204414546033574e+00 -1.2985839757371573e+02 0 0 0
1795 52 2 0.0000000000000000e+00 -9.9419744337129757e+01 -4.9472592898063183e+00 -1.2688124132668372e+02 0 0 0
2239 64 2 0.0000000000000000e+00 -8.8347075621038471e+01 -1.7464332475170758e+00 -1.3002148776706656e+02 0 0 0
2238 64 2 0.0000000000000000e+00 -8.4842672575839828e+01 -9.3122583796132066e+00 -1.2477079342582287e+02 0 0 0
584 17 2 0.0000000000000000e+00 -7.3413754393556559e+01 -3.9187893995904166e+00 -1.3077685553594603e+02 0 0 0
5420 155 4 0.0000000000000000e+00 -1.6640672038260868e+02 8.9028177271294560e+00 -1.2992890947675764e+02 0 0 0
6340 182 4 0.0000000000000000e+00 -1.0093777871138796e+02 1.0341946186260337e+01 -1.2086351372690618e+02 0 0 0
2240 64 2 0.0000000000000000e+00 -9.6211923591986775e+01 4.1289721356423739e+00 -1.3294585576622006e+02 0 0 0
5531 159 4 0.0000000000000000e+00 -8.7892514199850211e+01 7.4791005220674354e+00 -1.2610644697233650e+02 0 0 0
583 17 2 0.0000000000000000e+00 -7.4519026133612499e+01 4.4733051028447282e+00 -1.2581926464430212e+02 0 0 0
582 17 2 0.0000000000000000e+00 -7.4257222449581960e+01 1.3901011487237799e+01 -1.2260514581556792e+02 0 0 0
6250 179 4 0.0000000000000000e+00 -7.6447466501610492e+01 -9.3068690929482131e+01 -1.0840147147265924e+02 0 0 0
6251 179 4 0.0000000000000000e+00 -7.4562104220675479e+01 -8.8412742724900113e+01 -1.1762172231654016e+02 0 0 0
2543 73 2 0.0000000000000000e+00 -1.0183140248232318e+02 -7.0495669152912328e+01 -1.0785249433346175e+02 0 0 0
6254 179 4 0.0000000000000000e+00 -8.8310540579048137e+01 -6.8457931043525377e+01 -1.1756702274769529e+02 0 0 0
6496 186 4 0.0000000000000000e+00 -1.0572939940737552e+02 -5.9469217334913687e+01 -1.1509342991357688e+02 0 0 0
6255 179 3 0.0000000000000000e+00 -9.2157207322244247e+01 -5.9363553887176344e+01 -1.1505903393604963e+02 0 0 0
2546 73 2 0.0000000000000000e+00 -8.2717960399694121e+01 -6.5327206239462186e+01 -1.0783123920932006e+02 0 0 0
4752 136 4 0.0000000000000000e+00 -7.0369592319763044e+01 -5.4536590847676933e+01 -1.0828033691339803e+02 0 0 0
6490 186 4 0.0000000000000000e+00 -1.4133217598855779e+02 -4.0774471854489043e+01 -1.1566564880518717e+02 0 0 0
6491 186 4 0.0000000000000000e+00 -1.3504903247897144e+02 -4.8842069336995792e+01 -1.1577915395323394e+02 0 0 0
2521 73 2 0.0000000000000000e+00 -1.2126256487358451e+02 -4.2579809979380563e+01 -1.1925615365810978e+02 0 0 0
2522 73 2 0.0000000000000000e+00 -1.2276420469102729e+02 -4.6846319475707794e+01 -1.1009307005954480e+02 0 0 0
6256 179 4 0.0000000000000000e+00 -9.6654196800518605e+01 -5.1396118514183286e+01 -1.1195234317836322e+02 0 0 0
6257 179 4 0.0000000000000000e+00 -9.9811628687647158e+01 -4.2622226883316515e+01 -1.1577014627546390e+02 0 0 0
4745 136 4 0.0000000000000000e+00 -8.0288745282289270e+01 -4.0513149600952424e+01 -1.1325260591743569e+02 0 0 0
6489 186 4 0.0000000000000000e+00 -1.3778299774219698e+02 -3.1714988071783072e+01 -1.1388074757549610e+02 0 0 0
2926 84 2 0.0000000000000000e+00 -1.3252489753479284e+02 -3.9181733412177991e+01 -1.0953642105630149e+02 0 0 0
6258 179 4 0.0000000000000000e+00 -1.0247137130440930e+02 -3.5646670255222901e+01 -1.0902846845818691e+02 0 0 0
4744 136 4 0.0000000000000000e+00 -8.1479066610928570e+01 -3.2324327421931272e+01 -1.1936625310817179e+02 0 0 0
6488 186 4 0.0000000000000000e+00 -1.3730542199528847e+02 -2.2727610962078742e+01 -1.0945429028454032e+02 0 0 0
6337 182 4 0.0000000000000000e+00 -1.0517747694807204e+02 -1.5968518319515510e+01 -1.2042024807496844e+02 0 0 0
2906 84 2 0.0000000000000000e+00 -1.0059394542874151e+02 -1.7685230566949734e+01 -1.1148887746696093e+02 0 0 0
2072 60 2 0.0000000000000000e+00 -8.9502611206831986e+01 -2.4370546231196943e+01 -1.1475781674636107e+02 0 0 0
6521 187 3 0.0000000000000000e+00 -7.5544192378998090e+01 -1.8431950277453439e+01 -1.0875751641331348e+02 0 0 0
6522 187 4 0.0000000000000000e+00 -6.9841739766795385e+01 -1.4893356506188550e+01 -1.1515627504128965e+02 0 0 0
1718 50 2 0.0000000000000000e+00 -1.3035475649140935e+02 -2.9373854296907695e+00 -1.1821520619092749e+02 0 0 0
1719 50 1 0.0000000000000000e+00 -1.2906177196807727e+02 -6.8674331070762804e+00 -1.0920565492377884e+02 0 0 0
3728 107 3 0.0000000000000000e+00 -1.1536403814865477e+02 -1.2107914467351527e+01 -1.1120683301504759e+02 0 0 0
3727 107 4 0.0000000000000000e+00 -1.1842588417422664e+02 -2.8874156472724790e+00 -1.1223459202168144e+02 0 0 0
6338 182 4 0.0000000000000000e+00 -1.0866727353623627e+02 -7.4631362685563056e+00 -1.1792664551149814e+02 0 0 0
2907 84 2 0.0000000000000000e+00 -9.5617824074314058e+01 -1.0469375959755121e+01 -1.1740077744621971e+02 0 0 0
2908 84 2 0.0000000000000000e+00 -8.5950430985990195e+01 -1.2555885024266098e+01 -1.1450401685458864e+02 0 0 0
1796 52 1 0.0000000000000000e+00 -9.3567038793292866e+01 -1.1910276097752053e+00 -1.2022760123838736e+02 0 0 0
1797 52 2 0.0000000000000000e+00 -8.3784051981489370e+01 -3.2459490931039203e-01 -1.1662596392870388e+02 0 0 0
1798 52 2 0.0000000000000000e+00 -7.5488718001526721e+01 -4.7573444025575080e+00 -1.1788368629422530e+02 0 0 0
2909 84 1 0.0000000000000000e+00 -8.0424488046211948e+01 -8.7109273335963415e+00 -1.0733853913521602e+02 0 0 0
3726 107 4 0.0000000000000000e+00 -1.2625418840600273e+02 2.6628206283011004e+00 -1.1055355129334910e+02 0 0 0
3725 107 4 0.0000000000000000e+00 -1.2995352874717184e+02 1.2042651501488406e+01 -1.0863864034073664e+02 0 0 0
6339 182 3 0.0000000000000000e+00 -1.0370821825177191e+02 1.3233471919063842e+00 -1.1795054809879485e+02 0 0 0
2920 84 2 0.0000000000000000e+00 -1.0877912745991675e+02 9.2103250458942725e+00 -1.0933721368701330e+02 0 0 0
5903 169 4 0.0000000000000000e+00 -8.3829405063030137e+01 1.3017197287783818e+01 -1.1626109181061695e+02 0 0 0
2810 81 2 0.0000000000000000e+00 -1.0349616468564561e+02 -9.5084871494732468e+01 -9.6161858928892073e+01 0 0 0
6249 179 4 0.0000000000000000e+00 -7.3315205335807647e+01 -9.5002604400429661e+01 -9.9165685786359163e+01 0 0 0
2809 81 2 0.0000000000000000e+00 -9.8040768799404901e+01 -8.7385601848656819e+01 -9.4194381862543096e+01 0 0 0
2541 73 2 0.0000000000000000e+00 -9.1265860907087244e+01 -8.4660335970122020e+01 -1.0262886221576944e+02 0 0 0
2540 73 2 0.0000000000000000e+00 -8.1598105728935849e+01 -8.2664447237051007e+01 -1.0084837156046815e+02 0 0 0
2542 73 2 0.0000000000000000e+00 -9.8974350887371870e+01 -7.9157165474030137e+01 -1.0349932632306096e+02 0 0 0
1387 40 2 0.0000000000000000e+00 -9.1066997722130210e+01 -7.7521272780923908e+01 -9.5071161794757259e+01 0 0 0
2547 73 2 0.0000000000000000e+00 -7.3343545947850131e+01 -6.8551972999929490e+01 -1.0534562875286369e+02 0 0 0
2086 60 2 0.0000000000000000e+00 -6.9827956563285582e+01 -7.9760921722605332e+01 -1.0322679574585189e+02 0 0 0
6492 186 4 0.0000000000000000e+00 -1.3201938542216030e+02 -5.4162956279384041e+01 -1.0711069590529011e+02 0 0 0
6493 186 3 0.0000000000000000e+00 -1.2722720412063971e+02 -5.6951906454557317e+01 -9.8887026990613592e+01 0 0 0
6494 186 4 0.0000000000000000e+00 -1.1723909824271259e+02 -5.4051571680852909e+01 -1.0037026641888849e+02 0 0 0
6495 186 4 0.0000000000000000e+00 -1.0938508935960141e+02 -5.6460782182792919e+01 -1.0624198965765008e+02 0 0 0
2544 73 2 0.0000000000000000e+00 -9.7041416478086333e+01 -6.1869507891037401e+01 -1.0605031080807915e+02 0 0 0
4760 136 4 0.0000000000000000e+00 -1.0418706732405504e+02 -5.3963440630350561e+01 -9.4619585465320071e+01 0 0 0
2545 73 1 0.0000000000000000e+00 -8.8697529584058998e+01 -5.7611941475665276e+01 -1.0420281796098217e+02 0 0 0
2927 84 2 0.0000000000000000e+00 -1.3883154780898360e+02 -4.5516907701166033e+01 -1.0467551891438323e+02 0 0 0
2524 73 1 0.0000000000000000e+00 -1.3280133949788092e+02 -4.7608510916911584e+01 -9.5381727184939706e+01 0 0 0
2523 73 2 0.0000000000000000e+00 -1.2533230815406603e+02 -4.4596329989828625e+01 -1.0061125734252001e+02 0 0 0
4756 136 4 0.0000000000000000e+00 -1.0291755790882600e+02 -4.2774375217347711e+01 -9.7059075588673579e+01 0 0 0
4755 136 4 0.0000000000000000e+00 -9.5921246244788392e+01 -4.1672374860488574e+01 -1.0364664479600741e+02 0 0 0
4754 136 4 0.0000000000000000e+00 -8.7565339581665043e+01 -4.6433818241244097e+01 -1.0639285855796091e+02 0 0 0
4746 136 4 0.0000000000000000e+00 -7.4264957963092399e+01 -4.0822705409935473e+01 -1.0454789709828346e+02 0 0 0
4753 136 4 0.0000000000000000e+00 -7.9030598800092108e+01 -5.1726361892562629e+01 -1.0385897011087940e+02 0 0 0
2928 84 2 0.0000000000000000e+00 -1.3549402628475858e+02 -3.7704870321706920e+01 -9.9976910238410014e+01 0 0 0
2925 84 2 0.0000000000000000e+00 -1.2734268338674430e+02 -3.1849178462945243e+01 -1.0544465815906968e+02 0 0 0
6259 179 4 0.0000000000000000e+00 -1.1010960602514142e+02 -3.8372729609145274e+01 -1.0261753289676115e+02 0 0 0
6260 179 4 0.0000000000000000e+00 -1.1904454218094891e+02 -3.4524955478338171e+01 -9.8635814303291809e+01 0 0 0
6519 187 4 0.0000000000000000e+00 -8.5103059015218264e+01 -3.1480938227324113e+01 -9.7330649014736977e+01 0 0 0
6518 187 4 0.0000000000000000e+00 -9.0563816692037449e+01 -3.8992763700518665e+01 -9.5285508827093068e+01 0 0 0
6487 186 4 0.0000000000000000e+00 -1.3653866834241930e+02 -1.3137328957826787e+01 -1.0646617796678389e+02 0 0 0
1745 50 2 0.0000000000000000e+00 -1.3934012777084635e+02 -2.6082879560905411e+01 -9.3704989028172321e+01 0 0 0
2924 84 2 0.0000000000000000e+00 -1.2319284989302393e+02 -2.4592587442411986e+01 -1.0060733963991852e+02 0 0 0
2923 84 1 0.0000000000000000e+00 -1.1793750638022951e+02 -1.5620062616336803e+01 -1.0076597668943340e+02 0 0 0
3729 107 4 0.0000000000000000e+00 -1.0967170954270841e+02 -1.7564656851327065e+01 -1.0592601410359632e+02 0 0 0
3730 107 4 0.0000000000000000e+00 -1.0347299744275779e+02 -2.2175542373375301e+01 -1.0007361081661142e+02 0 0 0
2073 60 2 0.0000000000000000e+00 -9.4013223130800142e+01 -2.1615931597700691e+01 -1.0581254853186159e+02 0 0 0
2074 60 2 0.0000000000000000e+00 -9.4002657047309611e+01 -2.3681034170770168e+01 -9.5970515257344132e+01 0 0 0
6520 187 4 0.0000000000000000e+00 -8.1478127216467030e+01 -2.5713230513565826e+01 -1.0497151368113660e+02 0 0 0
2200 63 2 0.0000000000000000e+00 -1.5634115638356300e+02 -5.2992684315669276e+00 -9.3908837538767884e+01 0 0 0
6486 186 3 0.0000000000000000e+00 -1.3911324433915362e+02 -4.2445143792637268e+00 -1.0535655921947883e+02 0 0 0
1720 50 2 0.0000000000000000e+00 -1.2514801699333071e+02 -4.2445758675445049e+00 -1.0106757348585657e+02 0 0 0
2922 84 2 0.0000000000000000e+00 -1.1593171707308423e+02 -5.6242690243554678e+00 -1.0226275246928000e+02 0 0 0
2910 84 2 0.0000000000000000e+00 -7.5052158202341857e+01 -9.4801351496310957e+00 -9.8137240768497662e+01 0 0 0
6484 186 4 0.0000000000000000e+00 -1.5255384569194555e+02 8.7463323103083557e+00 -1.0241861749828590e+02 0 0 0
6485 186 4 0.0000000000000000e+00 -1.4483966909077890e+02 2.5268389700557150e+00 -1.0088728322987862e+02 0 0 0
1923 55 2 0.0000000000000000e+00 -1.1382602567220401e+02 1.3699594366989919e+01 -9.7232234966494516e+01 0 0 0
2921 84 2 0.0000000000000000e+00 -1.1660065860246627e+02 4.0105583382052794e+00 -1.0536373031049675e+02 0 0 0
1721 50 2 0.0000000000000000e+00 -1.2258404566208132e+02 3.5109837881744443e+00 -9.4529135477537707e+01 0 0 0
2918 84 2 0.0000000000000000e+00 -9.5419609123636548e+01 1.0036381975395061e+01 -1.0054954853787471e+02 0 0 0
2917 84 2 0.0000000000000000e+00 -9.4558791531235912e+01 2.1611739856880714e+00 -9.3876509315808917e+01 0 0 0
5900 169 4 0.0000000000000000e+00 -8.1980003536589351e+01 7.7911318717111655e+00 -9.4830306302800409e+01 0 0 0
2811 81 1 0.0000000000000000e+00 -9.8287332142713296e+01 -9.7231533134554141e+01 -8.8044199830608534e+01 0 0 0
6247 179 4 0.0000000000000000e+00 -7.1307933537364505e+01 -1.0441591714154285e+02 -8.4544938770261950e+01 0 0 0
5883 169 4 0.0000000000000000e+00 -1.1014859510882430e+02 -9.0357153129579444e+01 -8.7370671715427363e+01 0 0 0
5882 169 4 0.0000000000000000e+00 -1.1314395161027680e+02 -8.1885831516976808e+01 -9.1921774926909407e+01 0 0 0
5884 169 3 0.0000000000000000e+00 -1.0236827889789539e+02 -8.9924481723045929e+01 -8.1041642578238694e+01 0 0 0
2808 81 2 0.0000000000000000e+00 -9.8665014210170042e+01 -8.1325598935273433e+01 -8.6131280878721839e+01 0 0 0
1386 40 2 0.0000000000000000e+00 -8.7458289028620186e+01 -8.7002404312569837e+01 -9.2686386304158134e+01 0 0 0
1385 40 2 0.0000000000000000e+00 -8.9888408770591369e+01 -8.7902042492217518e+01 -8.3220824183488588e+01 0 0 0
2539 73 2 0.0000000000000000e+00 -7.4896766548762244e+01 -8.5191422788466468e+01 -9.3442758604324055e+01 0 0 0
2538 73 1 0.0000000000000000e+00 -6.9477993408299156e+01 -8.6048937855467869e+01 -8.4527470195023085e+01 0 0 0
5881 169 4 0.0000000000000000e+00 -1.0880743656145502e+02 -7.2675404735835954e+01 -8.9040669354486013e+01 0 0 0
6231 179 4 0.0000000000000000e+00 -8.3561741382695715e+01 -7.9436257740702516e+01 -8.5881822966204709e+01 0 0 0
1388 40 2 0.0000000000000000e+00 -9.2558653339144797e+01 -6.9310695009147921e+01 -8.9790987577839061e+01 0 0 0
2084 60 2 0.0000000000000000e+00 -7.1758601528523670e+01 -7.0989822036075694e+01 -8.7116046156923588e+01 0 0 0
2526 73 2 0.0000000000000000e+00 -1.2169291466170326e+02 -5.5852923363057982e+01 -8.5557731197611986e+01 0 0 0
1389 40 2 0.0000000000000000e+00 -1.0041225567945951e+02 -6.2726092044638953e+01 -8.9870872673240925e+01 0 0 0
1390 40 1 0.0000000000000000e+00 -9.8683886131186441e+01 -6.3517993996301335e+01 -8.0227607608456267e+01 0 0 0
6515 187 4 0.0000000000000000e+00 -7.2026787544563916e+01 -5.8174095999652366e+01 -8.7035881500686600e+01 0 0 0
2930 84 1 0.0000000000000000e+00 -1.3666750916865854e+02 -4.4056933670749579e+01 -8.2934182449218284e+01 0 0 0
2525 73 2 0.0000000000000000e+00 -1.3068569512300053e+02 -5.2708702790123283e+01 -8.7294225755221348e+01 0 0 0
6262 179 3 0.0000000000000000e+00 -1.2583786639680579e+02 -4.1834049643217483e+01 -8.2552353230773349e+01 0 0 0
4759 136 4 0.0000000000000000e+00 -1.1334347859609163e+02 -5.3249911002651068e+01 -9.0957683050999094e+01 0 0 0
4758 136 4 0.0000000000000000e+00 -1.1848044430304648e+02 -4.5234903812278411e+01 -8.7574094587679127e+01 0 0 0
4757 136 3 0.0000000000000000e+00 -1.1155080766272432e+02 -4.0934292640009701e+01 -9.2629368825425743e+01 0 0 0
929 27 2 0.0000000000000000e+00 -1.1150333558226392e+02 -5.0922897107039958e+01 -8.0166522911616497e+01 0 0 0
928 27 1 0.0000000000000000e+00 -1.0437900514008990e+02 -4.4391717373518169e+01 -8.4622519707396179e+01 0 0 0
6517 187 4 0.0000000000000000e+00 -8.6706533415467391e+01 -4.5494566664527326e+01 -8.9750221974801249e+01 0 0 0
6516 187 4 0.0000000000000000e+00 -8.0942265860272585e+01 -5.3294539102629649e+01 -8.8976237944125117e+01 0 0 0
5545 159 4 0.0000000000000000e+00 -7.1402985002771658e+01 -4.7295106311681444e+01 -8.3746043826416212e+01 0 0 0
2077 60 2 0.0000000000000000e+00 -8.1125781034345451e+01 -4.2396130280253828e+01 -8.0699605500380855e+01 0 0 0
1744 50 2 0.0000000000000000e+00 -1.4503434798372768e+02 -2.8178823270450192e+01 -8.5929815426290943e+01 0 0 0
2929 84 2 0.0000000000000000e+00 -1.3590598851041619e+02 -3.6553953708249011e+01 -9.0218172810600564e+01 0 0 0
6261 179 4 0.0000000000000000e+00 -1.2446537730712917e+02 -3.5430550230399909e+01 -9.0158804250157317e+01 0 0 0
4795 137 4 0.0000000000000000e+00 -1.1863475084863533e+02 -2.6716057871075037e+01 -9.0752678388655468e+01 0 0 0
3731 107 4 0.0000000000000000e+00 -1.0167065242426635e+02 -2.9296691963606236e+01 -9.2909311452510096e+01 0 0 0
3732 107 4 0.0000000000000000e+00 -9.7460164576072856e+01 -3.6131333494273278e+01 -8.7402853064035597e+01 0 0 0
2075 60 2 0.0000000000000000e+00 -8.8730380658776767e+01 -2.6579854947364538e+01 -8.7658020106537450e+01 0 0 0
2076 60 1 0.0000000000000000e+00 -8.1687025407234316e+01 -3.3228785158367863e+01 -8.4379345921506840e+01 0 0 0
1746 50 2 0.0000000000000000e+00 -1.3227923315898053e+02 -2.1410208669501131e+01 -8.8307205528303314e+01 0 0 0
4794 137 4 0.0000000000000000e+00 -1.1259780266363114e+02 -2.5703761527999600e+01 -8.3031363108370599e+01 0 0 0
2199 63 2 0.0000000000000000e+00 -1.5893859231545204e+02 -1.3052184271438538e+00 -8.4565276891842871e+01 0 0 0
2201 63 2 0.0000000000000000e+00 -1.4888785073399464e+02 -7.4258895700359897e+00 -8.6197908375842829e+01 0 0 0
2202 63 1 0.0000000000000000e+00 -1.3876799422159320e+02 -7.4954796303210021e+00 -8.7821501207416276e+01 0 0 0
2203 63 2 0.0000000000000000e+00 -1.2928935384838061e+02 -5.3179977423424987e+00 -8.9180098847967230e+01 0 0 0
2204 63 2 0.0000000000000000e+00 -1.1908541213893763e+02 -5.9557033404958011e+00 -9.0300124246367304e+01 0 0 0
2205 63 2 0.0000000000000000e+00 -1.1015139861308509e+02 -9.8389590603281523e+00 -9.3614030409777030e+01 0 0 0
1921 55 2 0.0000000000000000e+00 -1.0602563474634009e+02 -4.6075351351578081e-01 -8.6106729694463027e+01 0 0 0
5898 169 3 0.0000000000000000e+00 -8.6564775752055169e+01 -6.7206975989877753e+00 -8.6101442549716936e+01 0 0 0
5899 169 4 0.0000000000000000e+00 -8.0687259820253033e+01 -1.5042831464461930e+00 -9.2589433294459738e+01 0 0 0
2911 84 2 0.0000000000000000e+00 -7.1923560953348215e+01 -1.0059473481137230e+01 -8.9544787514795587e+01 0 0 0
2198 63 2 0.0000000000000000e+00 -1.5670827066581563e+02 7.9720601255307262e+00 -8.1277483138812386e+01 0 0 0
561 17 2 0.0000000000000000e+00 -1.4527940811218690e+02 9.0700486842577455e+00 -9.3055330901450048e+01 0 0 0
6289 180 4 0.0000000000000000e+00 -1.3619747886065088e+02 1.1562946574989892e+01 -8.8631891172323833e+01 0 0 0
6288 180 4 0.0000000000000000e+00 -1.3438399561903822e+02 3.7630924109858772e+00 -8.3139679495105298e+01 0 0 0
1722 50 2 0.0000000000000000e+00 -1.2082328587109787e+02 3.6263372137538816e+00 -8.4238388164157726e+01 0 0 0
1922 55 1 0.0000000000000000e+00 -1.0966477043154872e+02 8.1582026543267361e+00 -8.9093031669188463e+01 0 0 0
3714 107 3 0.0000000000000000e+00 -1.0245704112388292e+02 9.3167164564682583e+00 -8.0663189561210771e+01 0 0 0
2916 84 1 0.0000000000000000e+00 -9.0013831086059142e+01 3.7895135480509823e+00 -8.5770624774244112e+01 0 0 0
2915 84 2 0.0000000000000000e+00 -8.1207601774443603e+01 4.3023433560132176e+00 -8.1732569296805607e+01 0 0 0
4373 125 4 0.0000000000000000e+00 -7.3043873176317078e+01 1.3170599316302022e+01 -8.9155093150625191e+01 0 0 0
6246 179 4 0.0000000000000000e+00 -6.9776301901893561e+01 -1.1014083347672026e+02 -7.5903774271635882e+01 0 0 0
2812 81 2 0.0000000000000000e+00 -9.2863228078754375e+01 -9.7807755273389034e+01 -7.9527748447205326e+01 0 0 0
2813 81 2 0.0000000000000000e+00 -8.4876206800226427e+01 -9.6743490326343903e+01 -7.2932208638112598e+01 0 0 0
2536 73 2 0.0000000000000000e+00 -7.1778040092694354e+01 -1.0038359263793595e+02 -7.3319213467807174e+01 0 0 0
2535 73 2 0.0000000000000000e+00 -7.7839144573494266e+01 -1.0706165715746752e+02 -6.8240887277921971e+01 0 0 0
5886 169 4 0.0000000000000000e+00 -1.1018142246112272e+02 -8.5594903792538830e+01 -6.7123100426279692e+01 0 0 0
5885 169 4 0.0000000000000000e+00 -1.0168954167084158e+02 -8.8552738005432971e+01 -7.1062854504385569e+01 0 0 0
1384 40 2 0.0000000000000000e+00 -8.7201891089963425e+01 -8.6320308054510107e+01 -7.3290634887611517e+01 0 0 0
6265 179 4 0.0000000000000000e+00 -1.3078674601813796e+02 -7.0061016223864698e+01 -7.8922263271144942e+01 0 0 0
2528 73 2 0.0000000000000000e+00 -1.1085578332944881e+02 -7.0360109585424908e+01 -7.7189693392590428e+01 0 0 0
2529 73 2 0.0000000000000000e+00 -1.0673945886613453e+02 -7.2199883597900396e+01 -6.8155312347729108e+01 0 0 0
2806 81 2 0.0000000000000000e+00 -9.7131329404953746e+01 -7.0314007988728434e+01 -7.3260445965389110e+01 0 0 0
2807 81 2 0.0000000000000000e+00 -9.8915835456658442e+01 -7.8415941245970217e+01 -7.7327020840613386e+01 0 0 0
6232 179 4 0.0000000000000000e+00 -8.9619049324123495e+01 -7.7150864659393761e+01 -7.8300637661497120e+01 0 0 0
6233 179 4 0.0000000000000000e+00 -8.6754203395171132e+01 -7.6044779539265406e+01 -6.8882606644997352e+01 0 0 0
1383 40 1 0.0000000000000000e+00 -7.9019717665263585e+01 -8.0276346305288328e+01 -7.3900471284240794e+01 0 0 0
1382 40 2 0.0000000000000000e+00 -6.9712626714765292e+01 -7.8350154366037998e+01 -7.6751351352832131e+01 0 0 0
5548 159 3 0.0000000000000000e+00 -7.5824676824657104e+01 -6.9577198006010747e+01 -7.5419609005314271e+01 0 0 0
5549 159 4 0.0000000000000000e+00 -7.3625947844759679e+01 -7.3862107328765532e+01 -6.7321944814250827e+01 0 0 0
6264 179 4 0.0000000000000000e+00 -1.2738746183052668e+02 -6.0762312055541557e+01 -7.6989140820591075e+01 0 0 0
2527 73 2 0.0000000000000000e+00 -1.1672449295527521e+02 -6.2729894395841335e+01 -8.0132271365966588e+01 0 0 0
3736 107 4 0.0000000000000000e+00 -1.0585345191428279e+02 -6.0369281159640487e+01 -7.0738530257603017e+01 0 0 0
1391 40 2 0.0000000000000000e+00 -9.3040006901479686e+01 -6.0874225959957307e+01 -7.2306640820290042e+01 0 0 0
6234 179 3 0.0000000000000000e+00 -8.5806265312300155e+01 -6.6202870116995598e+01 -6.9597067935901137e+01 0 0 0
5547 159 4 0.0000000000000000e+00 -7.9812254576423413e+01 -6.1307912326843237e+01 -7.5401155674200382e+01 0 0 0
6263 179 4 0.0000000000000000e+00 -1.2657252660778924e+02 -5.0911389644284839e+01 -7.8735526986594564e+01 0 0 0
930 27 2 0.0000000000000000e+00 -1.1772404837981281e+02 -5.2957307373354496e+01 -7.2225130043763656e+01 0 0 0
2935 84 2 0.0000000000000000e+00 -1.0940602198952988e+02 -4.1604572126376638e+01 -7.2852759468099237e+01 0 0 0
3735 107 3 0.0000000000000000e+00 -1.0168649904964545e+02 -5.3388925901096357e+01 -7.5786645482817832e+01 0 0 0
3734 107 4 0.0000000000000000e+00 -9.7117603088892025e+01 -4.5612093449993345e+01 -7.2154376702583818e+01 0 0 0
2936 84 2 0.0000000000000000e+00 -1.0554183201038818e+02 -4.9065565403732450e+01 -6.7926143417711245e+01 0 0 0
2078 60 2 0.0000000000000000e+00 -8.3683462561015290e+01 -4.4110704855146899e+01 -7.1804222578772610e+01 0 0 0
5546 159 4 0.0000000000000000e+00 -7.6653318726018455e+01 -5.1703304136647844e+01 -7.7213147713407537e+01 0 0 0
2079 60 2 0.0000000000000000e+00 -7.5676881797815909e+01 -4.6781284678093265e+01 -6.7651792049543587e+01 0 0 0
1742 50 2 0.0000000000000000e+00 -1.5264026156152920e+02 -2.8109525692888358e+01 -7.0150304318309850e+01 0 0 0
2931 84 2 0.0000000000000000e+00 -1.3520879757042931e+02 -3.6740392006419427e+01 -7.6857306367233619e+01 0 0 0
2932 84 2 0.0000000000000000e+00 -1.3090563798743278e+02 -3.0802137667193957e+01 -7.0418801407378510e+01 0 0 0
2933 84 2 0.0000000000000000e+00 -1.2215842858808483e+02 -3.5250893910478410e+01 -7.2772381467673924e+01 0 0 0
2934 84 2 0.0000000000000000e+00 -1.1437514840961293e+02 -3.5258362145992180e+01 -7.8987577345680833e+01 0 0 0
927 27 2 0.0000000000000000e+00 -1.0452212131083940e+02 -3.5457880772640131e+01 -7.9313946589437066e+01 0 0 0
4762 137 4 0.0000000000000000e+00 -1.0463175382437741e+02 -3.5968901194935441e+01 -6.6609309980971105e+01 0 0 0
926 27 2 0.0000000000000000e+00 -1.0572691557669815e+02 -2.7156804941613643e+01 -7.3380378193676080e+01 0 0 0
3733 107 4 0.0000000000000000e+00 -9.4330078897228546e+01 -3.8279317844049345e+01 -7.7884764391371164e+01 0 0 0
6311 181 3 0.0000000000000000e+00 -7.1634858153261320e+01 -3.5387984401779441e+01 -7.9732759449724469e+01 0 0 0
6310 181 4 0.0000000000000000e+00 -7.8727143612276649e+01 -3.4870878124607358e+01 -7.2260160085729112e+01 0 0 0