LAMMPS data file via write_data, version 5 Jun 2019, timestep = 310000000

7000 atoms
4 atom types
7290 bonds
3 bond types
6600 angles
2 angle types

-5.0000000000000000e+02 5.0000000000000000e+02 xlo xhi
-5.0000000000000000e+02 5.0000000000000000e+02 ylo yhi
-5.0000000000000000e+02 5.0000000000000000e+02 zlo zhi

Masses

1 1000
2 1000
3 1000
4 1000

Pair Coeffs # lj/cut

1 0.296 10
2 0.296 10
3 0.296 10
4 0.296 10

Angle Coeffs # cosine

1 2
2 2

Atoms # full

5915 169 4 0.0000000000000000e+00 -4.7797150727370237e+01 -2.9814128047868124e+01 -1.5157831152842431e+02 0 0 0
5914 169 4 0.0000000000000000e+00 -4.8345292869470939e+01 -2.0651565093766045e+01 -1.4819409398114365e+02 0 0 0
2550 73 2 0.0000000000000000e+00 -3.3842452125285313e+01 -2.8676966640493003e+01 -1.4696852806914987e+02 0 0 0
2551 73 2 0.0000000000000000e+00 -2.7434394304061126e+01 -2.8090593760371323e+01 -1.5529705422637048e+02 0 0 0
6497 186 4 0.0000000000000000e+00 -5.4132316777691990e+01 -5.0196786027915303e+00 -1.5357377852643677e+02 0 0 0
5913 169 4 0.0000000000000000e+00 -5.5262478983273361e+01 -1.4299162292138542e+01 -1.4463861939361078e+02 0 0 0
6498 186 4 0.0000000000000000e+00 -4.5209873044336568e+01 -9.2487198743922487e+00 -1.5225898081062999e+02 0 0 0
6500 186 3 0.0000000000000000e+00 -2.7213875385818987e+01 -1.5038089022592057e+01 -1.5328300610858778e+02 0 0 0
6499 186 4 0.0000000000000000e+00 -3.7246863075634501e+01 -1.4626506951839851e+01 -1.5486846630535319e+02 0 0 0
2066 60 2 0.0000000000000000e+00 -3.4991657027165864e+01 -7.2534955281456126e+00 -1.4847457875317616e+02 0 0 0
6495 186 4 0.0000000000000000e+00 -7.0053034531939844e+01 2.8199733304401708e+00 -1.4540811879492244e+02 0 0 0
6496 186 4 0.0000000000000000e+00 -6.0699227897855160e+01 -5.4510110461656358e-01 -1.4726088158111054e+02 0 0 0
6188 177 4 0.0000000000000000e+00 -4.8676074274406695e+01 1.4478589913536100e+01 -1.4820848944856860e+02 0 0 0
6189 177 4 0.0000000000000000e+00 -4.6462736496165157e+01 2.2172091798523823e+01 -1.5330482800700361e+02 0 0 0
3014 87 1 0.0000000000000000e+00 -2.7085294883082746e+01 1.9258984604178988e+01 -1.4467367215044817e+02 0 0 0
6511 187 4 0.0000000000000000e+00 -4.6907849408274501e+01 -5.6471197214275449e+01 -1.3179327483532907e+02 0 0 0
4744 136 4 0.0000000000000000e+00 -3.3640456990318810e+01 -5.6799395228236222e+01 -1.3424573861651425e+02 0 0 0
2626 76 2 0.0000000000000000e+00 -8.4120750111864680e+01 -4.8836351538764319e+01 -1.3831760993394235e+02 0 0 0
2627 76 2 0.0000000000000000e+00 -7.7755014285543169e+01 -4.6048765155757266e+01 -1.3141785414893681e+02 0 0 0
4743 136 3 0.0000000000000000e+00 -3.4768073920740818e+01 -4.7465044391032606e+01 -1.3851412526467180e+02 0 0 0
2239 64 2 0.0000000000000000e+00 -5.3354856348622491e+01 -3.7672064165729374e+01 -1.3125779526374620e+02 0 0 0
2238 64 2 0.0000000000000000e+00 -4.4801635736932653e+01 -4.0866525872461757e+01 -1.3343061129726777e+02 0 0 0
4742 136 4 0.0000000000000000e+00 -3.4046695857130899e+01 -3.7170976918697647e+01 -1.3980033142697991e+02 0 0 0
4741 136 4 0.0000000000000000e+00 -2.9960712492655428e+01 -3.0098475477404591e+01 -1.3515178188408208e+02 0 0 0
2546 73 2 0.0000000000000000e+00 -6.9909426782813014e+01 -2.1477844012683153e+01 -1.3453158547879929e+02 0 0 0
2545 73 1 0.0000000000000000e+00 -7.8950105217465833e+01 -1.7843298088541296e+01 -1.3474551430832483e+02 0 0 0
2547 73 2 0.0000000000000000e+00 -6.0506381357475028e+01 -2.1436285246355023e+01 -1.3636811875151014e+02 0 0 0
2549 73 2 0.0000000000000000e+00 -4.3440156350318816e+01 -2.8066501132070027e+01 -1.4259148886924754e+02 0 0 0
2548 73 2 0.0000000000000000e+00 -5.2078356846095708e+01 -2.6396128249525947e+01 -1.3847505903134754e+02 0 0 0
1625 47 2 0.0000000000000000e+00 -4.4105573823527656e+01 -2.0324922252630788e+01 -1.3491994139803228e+02 0 0 0
1624 47 2 0.0000000000000000e+00 -3.7014308142690041e+01 -1.6771335333674994e+01 -1.4028887190540152e+02 0 0 0
6491 186 4 0.0000000000000000e+00 -1.0115621391759987e+02 -4.5046748852275869e+00 -1.4398027927747023e+02 0 0 0
6490 186 4 0.0000000000000000e+00 -1.0460212435954803e+02 -2.4553190547812083e+00 -1.3483882997301927e+02 0 0 0
6492 186 4 0.0000000000000000e+00 -9.3526510057816708e+01 -7.5717615215326273e+00 -1.3711195216301084e+02 0 0 0
6493 186 3 0.0000000000000000e+00 -8.4460668732646724e+01 -4.0662731974380568e+00 -1.3501004083230330e+02 0 0 0
5912 169 3 0.0000000000000000e+00 -6.2780782332705520e+01 -1.0094444189458775e+01 -1.3995810946582898e+02 0 0 0
2069 60 1 0.0000000000000000e+00 -5.6015832082842962e+01 -9.6904726624864637e+00 -1.3126557666897682e+02 0 0 0
2067 60 2 0.0000000000000000e+00 -4.0569773158364882e+01 -4.7372500548013177e+00 -1.4043339307299135e+02 0 0 0
2068 60 2 0.0000000000000000e+00 -4.8138177585604190e+01 -1.1056864014955526e+01 -1.3690719597938107e+02 0 0 0
1623 47 2 0.0000000000000000e+00 -2.7711877911593671e+01 -1.3986980098214371e+01 -1.3982466807831307e+02 0 0 0
3017 87 2 0.0000000000000000e+00 -3.4256511053685834e+01 -4.2592422874959075e+00 -1.3116973817972266e+02 0 0 0
6300 180 4 0.0000000000000000e+00 -1.4178930527840905e+02 -9.3667592376807718e-01 -1.3587402180881227e+02 0 0 0
2522 73 2 0.0000000000000000e+00 -9.7598221401591843e+01 1.1157632964728510e+01 -1.3623772490697763e+02 0 0 0
2523 73 2 0.0000000000000000e+00 -9.3330024408556000e+01 3.1617415323394864e+00 -1.3172990059310391e+02 0 0 0
6494 186 4 0.0000000000000000e+00 -7.7364494281077967e+01 2.1609827902463605e+00 -1.3845363316666828e+02 0 0 0
5911 169 4 0.0000000000000000e+00 -6.6121820218436156e+01 -2.0253587077572877e+00 -1.3525179194677708e+02 0 0 0
6187 177 4 0.0000000000000000e+00 -4.4174800150019998e+01 9.2812043512544538e+00 -1.4076977960835922e+02 0 0 0
3016 87 2 0.0000000000000000e+00 -3.2034662888495411e+01 7.7742930257898679e-01 -1.3925178525119941e+02 0 0 0
3015 87 2 0.0000000000000000e+00 -3.1618805323198643e+01 1.0664326422655796e+01 -1.4237252381953357e+02 0 0 0
5909 169 4 0.0000000000000000e+00 -7.1919792887778812e+01 1.4003204085241249e+01 -1.3659637452140274e+02 0 0 0
5908 169 4 0.0000000000000000e+00 -7.5231015291379151e+01 2.2471867863870365e+01 -1.4112411997274472e+02 0 0 0
580 17 2 0.0000000000000000e+00 -6.2305546154631401e+01 2.1520216730898817e+01 -1.3132894111582104e+02 0 0 0
581 17 2 0.0000000000000000e+00 -5.6892780876590905e+01 1.2926092105015231e+01 -1.3186044853942943e+02 0 0 0
582 17 2 0.0000000000000000e+00 -5.1282247830043779e+01 1.6660344756328744e+01 -1.3823921581310094e+02 0 0 0
583 17 2 0.0000000000000000e+00 -4.2683875577136362e+01 2.1239445881240012e+01 -1.4144467047932866e+02 0 0 0
6186 177 4 0.0000000000000000e+00 -4.0109327236213630e+01 1.2112299870401063e+01 -1.3198578945674703e+02 0 0 0
6185 177 3 0.0000000000000000e+00 -3.6006844433461438e+01 2.1242370440738789e+01 -1.3298034976038454e+02 0 0 0
2808 81 2 0.0000000000000000e+00 -1.0743835454423545e+02 -8.0620257645568387e+01 -1.2757886244772737e+02 0 0 0
2807 81 2 0.0000000000000000e+00 -1.1339969462089456e+02 -7.5287155990940462e+01 -1.2231645128784942e+02 0 0 0
2809 81 2 0.0000000000000000e+00 -1.0158339361373376e+02 -8.2022230121279719e+01 -1.1979136755308804e+02 0 0 0
5883 169 4 0.0000000000000000e+00 -7.8114383364699108e+01 -7.4629077227752973e+01 -1.1869282710307415e+02 0 0 0
5882 169 4 0.0000000000000000e+00 -7.1029024671167676e+01 -7.4023480083771545e+01 -1.2536068013422066e+02 0 0 0
5881 169 4 0.0000000000000000e+00 -6.2691580281463501e+01 -7.6615014305389693e+01 -1.2037628832411600e+02 0 0 0
6513 187 4 0.0000000000000000e+00 -4.2749263448250929e+01 -7.2087833882647374e+01 -1.1945320932023139e+02 0 0 0
2806 81 2 0.0000000000000000e+00 -1.1623800153501321e+02 -6.6185262759315506e+01 -1.1854420532751944e+02 0 0 0
6250 179 4 0.0000000000000000e+00 -9.4993867659981731e+01 -5.9870418133218230e+01 -1.2106058202048165e+02 0 0 0
2538 73 1 0.0000000000000000e+00 -1.0451306550797604e+02 -6.1693066633625094e+01 -1.1936530525584077e+02 0 0 0
3744 107 4 0.0000000000000000e+00 -7.7236912666666967e+01 -5.6362852124062613e+01 -1.2469201920541765e+02 0 0 0
4749 136 4 0.0000000000000000e+00 -5.5866847514536602e+01 -5.9447817712577077e+01 -1.1772782837096588e+02 0 0 0
6512 187 4 0.0000000000000000e+00 -4.5361124974868432e+01 -6.5751068993565212e+01 -1.2751549350299943e+02 0 0 0
4745 136 4 0.0000000000000000e+00 -3.3285595254217917e+01 -5.9838381681550693e+01 -1.2498408973350386e+02 0 0 0
2539 73 2 0.0000000000000000e+00 -1.0667714627060161e+02 -5.2252104190168644e+01 -1.2152247458482749e+02 0 0 0
6251 179 4 0.0000000000000000e+00 -9.6922389891549329e+01 -5.0324152800600885e+01 -1.2001898716473119e+02 0 0 0
2540 73 2 0.0000000000000000e+00 -1.0322519953817182e+02 -4.3042346258308356e+01 -1.2064408919126910e+02 0 0 0
3745 107 4 0.0000000000000000e+00 -8.6004760654261801e+01 -5.2937323388623952e+01 -1.2177165896231305e+02 0 0 0
3743 107 4 0.0000000000000000e+00 -6.7195155419294451e+01 -5.4868626483588351e+01 -1.2211000362044592e+02 0 0 0
2628 76 2 0.0000000000000000e+00 -7.0303302266995857e+01 -4.5319151220951490e+01 -1.2418197819980136e+02 0 0 0
2629 76 1 0.0000000000000000e+00 -6.0981414522823030e+01 -4.3809227209264918e+01 -1.2296453567926129e+02 0 0 0
2630 76 2 0.0000000000000000e+00 -5.1188326636891588e+01 -4.7146110685672824e+01 -1.2288250920205715e+02 0 0 0
2631 76 2 0.0000000000000000e+00 -4.5248497482257726e+01 -5.3486353699773467e+01 -1.1789050194784477e+02 0 0 0
2236 64 2 0.0000000000000000e+00 -2.7479756931345612e+01 -4.5872659873457330e+01 -1.2703421824855855e+02 0 0 0
1630 47 2 0.0000000000000000e+00 -3.2478669108620259e+01 -5.2827239024594455e+01 -1.1763046514032882e+02 0 0 0
2541 73 2 0.0000000000000000e+00 -9.8325675577272946e+01 -3.4256389046939496e+01 -1.2121968044813673e+02 0 0 0
6252 179 4 0.0000000000000000e+00 -9.1027654151825402e+01 -4.1921942822217261e+01 -1.2045457203439263e+02 0 0 0
6253 179 4 0.0000000000000000e+00 -8.5821633765220597e+01 -3.3869907173639021e+01 -1.2212255314310622e+02 0 0 0
2906 84 2 0.0000000000000000e+00 -7.3009882111284043e+01 -3.6637798731066709e+01 -1.3081500451886041e+02 0 0 0
2907 84 2 0.0000000000000000e+00 -7.3592387144382442e+01 -3.5414788501570555e+01 -1.2142236181415007e+02 0 0 0
2240 64 2 0.0000000000000000e+00 -5.9302342716175566e+01 -2.9818653642488808e+01 -1.2842044713460791e+02 0 0 0
1627 47 2 0.0000000000000000e+00 -5.0071730995327592e+01 -3.3235027831560892e+01 -1.2278971290686663e+02 0 0 0
2237 64 1 0.0000000000000000e+00 -3.5154662186823735e+01 -4.0673336318710199e+01 -1.2950926098103523e+02 0 0 0
2542 73 2 0.0000000000000000e+00 -9.5167849773029758e+01 -2.4910100458945674e+01 -1.2111103557489403e+02 0 0 0
2932 84 2 0.0000000000000000e+00 -1.0198218292515972e+02 -1.8843041340354027e+01 -1.1717910596755208e+02 0 0 0
6254 179 4 0.0000000000000000e+00 -8.0536378638563932e+01 -2.5953211227846751e+01 -1.2538162265340213e+02 0 0 0
2543 73 2 0.0000000000000000e+00 -9.3026054635709130e+01 -1.6022341900994025e+01 -1.2392684279540724e+02 0 0 0
6255 179 3 0.0000000000000000e+00 -7.7655173171221975e+01 -1.6136952795185756e+01 -1.2342278163176024e+02 0 0 0
5540 159 4 0.0000000000000000e+00 -5.3600825922010706e+01 -2.4355772630378102e+01 -1.1732073906265457e+02 0 0 0
1626 47 2 0.0000000000000000e+00 -4.7514713852545555e+01 -2.4736309783295766e+01 -1.2675204042519465e+02 0 0 0
3019 87 2 0.0000000000000000e+00 -3.6762178980657268e+01 -2.2757005779564111e+01 -1.2634645669929384e+02 0 0 0
4740 136 4 0.0000000000000000e+00 -2.6149666453862050e+01 -2.5337927496276208e+01 -1.2719845523018229e+02 0 0 0
6489 186 4 0.0000000000000000e+00 -1.0464431444887639e+02 -5.3821731795927041e+00 -1.2513963518637699e+02 0 0 0
2544 73 2 0.0000000000000000e+00 -8.6498480487079163e+01 -1.2834777943552334e+01 -1.3073948058587737e+02 0 0 0
2524 73 1 0.0000000000000000e+00 -9.0806497371544964e+01 -4.1420360124412055e+00 -1.2526002808795782e+02 0 0 0
6256 179 4 0.0000000000000000e+00 -7.7373268256532313e+01 -7.7447423571476355e+00 -1.2694371411264680e+02 0 0 0
2071 60 2 0.0000000000000000e+00 -6.7160560585968369e+01 -4.2699775758538587e+00 -1.1803689637399050e+02 0 0 0
2070 60 2 0.0000000000000000e+00 -6.1595899277727426e+01 -3.3191162046164413e+00 -1.2625270461242533e+02 0 0 0
5539 159 4 0.0000000000000000e+00 -5.1514879839108374e+01 -1.5050239069357643e+01 -1.2089990720836788e+02 0 0 0
5538 159 4 0.0000000000000000e+00 -4.8784654227023459e+01 -5.9113230068403944e+00 -1.2415350900116439e+02 0 0 0
3018 87 2 0.0000000000000000e+00 -3.7571318443110869e+01 -1.2980776065318755e+01 -1.2826985083091455e+02 0 0 0
5133 147 4 0.0000000000000000e+00 -3.0656778379243988e+01 -1.3310658939180840e+01 -1.1786014510660861e+02 0 0 0
6298 180 4 0.0000000000000000e+00 -1.5310180721132033e+02 8.5208011006141398e+00 -1.2264879431247819e+02 0 0 0
6299 180 4 0.0000000000000000e+00 -1.4535280012362628e+02 4.4236098363628003e+00 -1.2833886466454581e+02 0 0 0
1716 50 2 0.0000000000000000e+00 -1.3230074623614766e+02 1.9903595110110872e+00 -1.2134920585469720e+02 0 0 0
3724 107 4 0.0000000000000000e+00 -1.0120093484002211e+02 8.3402196652789655e+00 -1.2256612070262003e+02 0 0 0
3725 107 4 0.0000000000000000e+00 -9.4352058917021296e+01 3.3923441396658984e+00 -1.1816408573777873e+02 0 0 0
5910 169 4 0.0000000000000000e+00 -6.9002760938899044e+01 6.4654195143318924e+00 -1.3056648152566183e+02 0 0 0
6257 179 4 0.0000000000000000e+00 -7.7076951924967815e+01 1.3101563037216239e+00 -1.2111576425423002e+02 0 0 0
1800 52 2 0.0000000000000000e+00 -6.1860087695196327e+01 6.2927292034289728e+00 -1.1924442103152518e+02 0 0 0
1801 52 2 0.0000000000000000e+00 -5.5199859592353761e+01 4.4913662605466023e+00 -1.2566085999326555e+02 0 0 0
5537 159 4 0.0000000000000000e+00 -4.1968240496488207e+01 1.4526808521145966e+00 -1.2495836696235772e+02 0 0 0
5536 159 4 0.0000000000000000e+00 -3.6788110930910598e+01 9.4529493235313655e+00 -1.1979284049528542e+02 0 0 0
3204 92 2 0.0000000000000000e+00 -2.5940014619097653e+01 6.3247175304448220e+00 -1.3069003285982066e+02 0 0 0
3307 95 2 0.0000000000000000e+00 -1.4635952175868286e+02 1.7859493470596203e+01 -1.1746336299605773e+02 0 0 0
3306 95 2 0.0000000000000000e+00 -1.3756208883363280e+02 1.8019231699632940e+01 -1.2275812310536678e+02 0 0 0
3305 95 2 0.0000000000000000e+00 -1.2778069481372125e+02 2.0094862896624257e+01 -1.2279363098660080e+02 0 0 0
3723 107 4 0.0000000000000000e+00 -1.0819716609318061e+02 1.5832942521930967e+01 -1.2277098739442508e+02 0 0 0
2521 73 2 0.0000000000000000e+00 -1.0215830482916732e+02 1.7904295589999471e+01 -1.3062100212114498e+02 0 0 0
1802 52 2 0.0000000000000000e+00 -5.0596186984739106e+01 1.1334201808464233e+01 -1.2089808520980652e+02 0 0 0
1803 52 1 0.0000000000000000e+00 -4.8285062982683215e+01 1.9516324594160924e+01 -1.2645161339686639e+02 0 0 0
5535 159 4 0.0000000000000000e+00 -3.9578894263415982e+01 1.9423562436243945e+01 -1.1912881881078130e+02 0 0 0
3203 92 1 0.0000000000000000e+00 -2.8187427842748210e+01 1.5548627639898728e+01 -1.2770987149926849e+02 0 0 0
2810 81 2 0.0000000000000000e+00 -9.6231619141052278e+01 -8.6388827409731917e+01 -1.1278722678600401e+02 0 0 0
2811 81 1 0.0000000000000000e+00 -8.8636587690727708e+01 -8.4904932540295661e+01 -1.0584480912552128e+02 0 0 0
2537 73 2 0.0000000000000000e+00 -1.0529664185441783e+02 -7.2183427231886085e+01 -1.1650432999477978e+02 0 0 0
2536 73 2 0.0000000000000000e+00 -1.0420070120296157e+02 -7.7425771515912899e+01 -1.0814395288171380e+02 0 0 0
2535 73 2 0.0000000000000000e+00 -9.5302841971679726e+01 -7.5606246459941246e+01 -1.0565806465909478e+02 0 0 0
5884 169 3 0.0000000000000000e+00 -8.5768651194798053e+01 -7.6086995168494610e+01 -1.1181287080706812e+02 0 0 0
2533 73 2 0.0000000000000000e+00 -7.8277991270848119e+01 -7.4656398878526190e+01 -1.0415408254862210e+02 0 0 0
6515 187 4 0.0000000000000000e+00 -5.1485792353288112e+01 -7.2433527198278810e+01 -1.0987985310078824e+02 0 0 0
6514 187 3 0.0000000000000000e+00 -4.4584257847984126e+01 -7.8443468770426222e+01 -1.1268893164873747e+02 0 0 0
2083 60 1 0.0000000000000000e+00 -3.4719165754966113e+01 -7.6245901651724523e+01 -1.0781458681247092e+02 0 0 0
2084 60 2 0.0000000000000000e+00 -2.6460855568553125e+01 -7.9829235946664667e+01 -1.1020005068513660e+02 0 0 0
6231 179 4 0.0000000000000000e+00 -1.3538626784224985e+02 -6.4200698369353290e+01 -1.0855302318475948e+02 0 0 0
6232 179 4 0.0000000000000000e+00 -1.2634966070470364e+02 -6.6782812999268216e+01 -1.1040338423234635e+02 0 0 0
6233 179 4 0.0000000000000000e+00 -1.1948549799949308e+02 -6.4043482787929292e+01 -1.0403869473503934e+02 0 0 0
6234 179 3 0.0000000000000000e+00 -1.1033301898700702e+02 -6.0810238144803748e+01 -1.0771295160521449e+02 0 0 0
2805 81 2 0.0000000000000000e+00 -1.1677166324537953e+02 -5.6664446200356245e+01 -1.1538164666907520e+02 0 0 0
6249 179 4 0.0000000000000000e+00 -9.6102843019151123e+01 -6.8589525007697119e+01 -1.1708057183080538e+02 0 0 0
6248 179 3 0.0000000000000000e+00 -1.0060120272451846e+02 -6.4240491832719655e+01 -1.0920377663614769e+02 0 0 0
5885 169 4 0.0000000000000000e+00 -8.5098640534603589e+01 -6.6387103202252277e+01 -1.0885531783982991e+02 0 0 0
2532 73 2 0.0000000000000000e+00 -7.5048987391081198e+01 -6.8152772967761337e+01 -1.1060732183738695e+02 0 0 0
2531 73 1 0.0000000000000000e+00 -7.7740691083916658e+01 -5.9754295158709624e+01 -1.1460528738433250e+02 0 0 0
3742 107 3 0.0000000000000000e+00 -6.7126942298608355e+01 -5.8643234013863548e+01 -1.1244641326443873e+02 0 0 0
6516 187 4 0.0000000000000000e+00 -5.0946686995835051e+01 -6.3891184051884665e+01 -1.0391108575546063e+02 0 0 0
4748 136 4 0.0000000000000000e+00 -4.6592701526438582e+01 -6.3111987297832655e+01 -1.1607057578626927e+02 0 0 0
4747 136 4 0.0000000000000000e+00 -4.0667095631738427e+01 -6.7866449189045170e+01 -1.0928424860673258e+02 0 0 0
4746 136 4 0.0000000000000000e+00 -3.5039013330024261e+01 -6.2273713731212275e+01 -1.1560448935449882e+02 0 0 0
2633 76 2 0.0000000000000000e+00 -3.3692541219105003e+01 -6.1114925076273650e+01 -1.0375246664542101e+02 0 0 0
2634 76 2 0.0000000000000000e+00 -2.7114591939413987e+01 -6.8066867092006888e+01 -1.0767281450514544e+02 0 0 0
2804 81 1 0.0000000000000000e+00 -1.1415782221463344e+02 -4.9991686699786491e+01 -1.0856236345017228e+02 0 0 0
2530 73 2 0.0000000000000000e+00 -8.1982674456212123e+01 -5.1329134306566360e+01 -1.1107409251216261e+02 0 0 0
4754 136 4 0.0000000000000000e+00 -9.1157636390664564e+01 -4.3288121460219784e+01 -1.0383905632311924e+02 0 0 0
4751 136 4 0.0000000000000000e+00 -6.7888846443715920e+01 -4.5755858368168290e+01 -1.1009158373297124e+02 0 0 0
4750 136 3 0.0000000000000000e+00 -6.0796834060105667e+01 -5.0971838988704825e+01 -1.1409921473514036e+02 0 0 0
5543 159 4 0.0000000000000000e+00 -6.0225423059260152e+01 -4.7498934769009402e+01 -1.0355194372859791e+02 0 0 0
2632 76 2 0.0000000000000000e+00 -3.9690860691979367e+01 -5.5450002277295347e+01 -1.0972472578341052e+02 0 0 0
6517 187 4 0.0000000000000000e+00 -5.2323818533916580e+01 -5.5602873145457615e+01 -1.0776848567219660e+02 0 0 0
6518 187 4 0.0000000000000000e+00 -4.9567649778063114e+01 -4.7497336457068329e+01 -1.1085763853089831e+02 0 0 0
1629 47 2 0.0000000000000000e+00 -3.8306397987879983e+01 -4.5541155758984601e+01 -1.1534663255247686e+02 0 0 0
2802 81 2 0.0000000000000000e+00 -1.2361964490153430e+02 -3.4848698802103058e+01 -1.1219051991702156e+02 0 0 0
2803 81 2 0.0000000000000000e+00 -1.1657716675467240e+02 -4.0863389472741950e+01 -1.1053977424218753e+02 0 0 0
2934 84 2 0.0000000000000000e+00 -1.0541371092111753e+02 -3.0746454027262896e+01 -1.0570942747648407e+02 0 0 0
2528 73 2 0.0000000000000000e+00 -8.5795411398064985e+01 -3.4314239570611221e+01 -1.1205894768286164e+02 0 0 0
2529 73 2 0.0000000000000000e+00 -7.8837686703165545e+01 -4.2019927070922350e+01 -1.1216925896106598e+02 0 0 0
2908 84 2 0.0000000000000000e+00 -7.5799357108358549e+01 -3.2205262665540673e+01 -1.1256550619814989e+02 0 0 0
6519 187 4 0.0000000000000000e+00 -5.6535092771029255e+01 -4.2001004791101764e+01 -1.1418032048993467e+02 0 0 0
6520 187 4 0.0000000000000000e+00 -6.3312819283171230e+01 -3.4963250840857718e+01 -1.1590348820156773e+02 0 0 0
5542 159 4 0.0000000000000000e+00 -5.3487067515236575e+01 -3.9999490035845412e+01 -1.0444512530747745e+02 0 0 0
5541 159 3 0.0000000000000000e+00 -5.2865010764839127e+01 -3.1246846868230051e+01 -1.1017905273097185e+02 0 0 0
1628 47 1 0.0000000000000000e+00 -4.5926885792852758e+01 -3.8761104551297890e+01 -1.1568936896056275e+02 0 0 0
3022 87 2 0.0000000000000000e+00 -4.2961529330529629e+01 -3.6956236492874893e+01 -1.0501872832426066e+02 0 0 0
3021 87 1 0.0000000000000000e+00 -3.9823645535826330e+01 -2.9794000877395664e+01 -1.1067542256974829e+02 0 0 0
4547 130 3 0.0000000000000000e+00 -2.8843127898059677e+01 -3.0303799803882043e+01 -1.0807663619110122e+02 0 0 0
2801 81 2 0.0000000000000000e+00 -1.3078604812024977e+02 -2.8103440797782316e+01 -1.0855239740667319e+02 0 0 0
2933 84 2 0.0000000000000000e+00 -1.0229931595598863e+02 -2.8436768191041850e+01 -1.1456076941115305e+02 0 0 0
2931 84 2 0.0000000000000000e+00 -9.5644285061164297e+01 -1.6212679897696894e+01 -1.0977231424406246e+02 0 0 0
2527 73 2 0.0000000000000000e+00 -8.6918883011028257e+01 -2.4976822396754041e+01 -1.0891146043166526e+02 0 0 0
2526 73 2 0.0000000000000000e+00 -8.5349858431249814e+01 -1.5993732711403968e+01 -1.1231575466507924e+02 0 0 0
2909 84 1 0.0000000000000000e+00 -7.6686046448804476e+01 -2.5621946994843967e+01 -1.0589720415673858e+02 0 0 0
6521 187 3 0.0000000000000000e+00 -6.7117987451790697e+01 -2.6571300458549352e+01 -1.1075946588532777e+02 0 0 0
2910 84 2 0.0000000000000000e+00 -7.0164569833753575e+01 -1.8066723631493833e+01 -1.0377319150387373e+02 0 0 0
6522 187 4 0.0000000000000000e+00 -6.0171107272867623e+01 -2.3518240791055280e+01 -1.0456502581028742e+02 0 0 0
3020 87 2 0.0000000000000000e+00 -3.7658492233200199e+01 -2.1683556568602139e+01 -1.1616481089238118e+02 0 0 0
1718 50 2 0.0000000000000000e+00 -1.2014367395139192e+02 -7.3967655672018475e+00 -1.0895088731196869e+02 0 0 0
6488 186 4 0.0000000000000000e+00 -1.0239148687693974e+02 -8.5186683363296893e+00 -1.1633718500851403e+02 0 0 0
2525 73 2 0.0000000000000000e+00 -8.7881692292096531e+01 -8.3190149418177430e+00 -1.1652354836581397e+02 0 0 0
2072 60 2 0.0000000000000000e+00 -6.9578959597941463e+01 -8.1659492801983635e+00 -1.0868295590401674e+02 0 0 0
2073 60 2 0.0000000000000000e+00 -7.8291247178866001e+01 -1.2110509933701275e+01 -1.0602740560738847e+02 0 0 0
3395 97 2 0.0000000000000000e+00 -5.5411405989416856e+01 -3.6300478854861509e+00 -1.1341076142224890e+02 0 0 0
5132 147 4 0.0000000000000000e+00 -3.4346878372198532e+01 -7.8234091346720431e+00 -1.1104390421327977e+02 0 0 0
1717 50 2 0.0000000000000000e+00 -1.2540369849221004e+02 -2.1162419496666121e+00 -1.1523547607248945e+02 0 0 0
6486 186 3 0.0000000000000000e+00 -1.1429858461395482e+02 1.5231797584380797e-02 -1.0599347755453972e+02 0 0 0
6487 186 4 0.0000000000000000e+00 -1.0620311435548759e+02 -2.9468901696074329e-01 -1.1198315279703598e+02 0 0 0
3726 107 4 0.0000000000000000e+00 -9.5822149468916223e+01 1.0340495603782927e+00 -1.0852349429433323e+02 0 0 0
6258 179 4 0.0000000000000000e+00 -8.0755576677468270e+01 3.6126429855092490e+00 -1.1195079227841138e+02 0 0 0
1798 52 2 0.0000000000000000e+00 -7.2900975775584755e+01 1.0354839443714743e+01 -1.0458397359734944e+02 0 0 0
1799 52 2 0.0000000000000000e+00 -6.6812949767357111e+01 5.4894528949761749e+00 -1.1067160928248381e+02 0 0 0
3394 97 2 0.0000000000000000e+00 -4.9531431833104129e+01 2.2584816482271353e+00 -1.0882129756639850e+02 0 0 0
3393 97 2 0.0000000000000000e+00 -4.2708235818583894e+01 8.8503328609199770e+00 -1.0529706550909651e+02 0 0 0
6296 180 4 0.0000000000000000e+00 -1.6358267894138694e+02 1.5013204200503855e+01 -1.0846395110034179e+02 0 0 0
6295 180 4 0.0000000000000000e+00 -1.6690608990945688e+02 2.1036969282619406e+01 -1.1563670282660399e+02 0 0 0
6297 180 3 0.0000000000000000e+00 -1.5987388933463643e+02 1.1713621439833316e+01 -1.1686298939596439e+02 0 0 0
3308 95 1 0.0000000000000000e+00 -1.5361717781295857e+02 1.7844604334231253e+01 -1.1019241510049282e+02 0 0 0
3719 107 4 0.0000000000000000e+00 -1.2754123038203475e+02 1.7574038342027492e+01 -1.0392120487853225e+02 0 0 0
3720 107 4 0.0000000000000000e+00 -1.2189478016420628e+02 2.3516487384053256e+01 -1.0870391774276807e+02 0 0 0
1796 52 1 0.0000000000000000e+00 -8.8438595918620791e+01 2.1332468146055803e+01 -1.0829078247118117e+02 0 0 0
1797 52 2 0.0000000000000000e+00 -8.0676866836183407e+01 1.6429362571640507e+01 -1.0542431477222144e+02 0 0 0
3391 97 2 0.0000000000000000e+00 -3.7756738282784639e+01 2.1683461744188332e+01 -1.0812205850965006e+02 0 0 0
1540 44 2 0.0000000000000000e+00 -2.6665708929265701e+01 -1.0125374319723048e+02 -9.9026403024797062e+01 0 0 0
2812 81 2 0.0000000000000000e+00 -8.8227058980285449e+01 -9.0357797645136941e+01 -9.7237110029522484e+01 0 0 0
2813 81 2 0.0000000000000000e+00 -8.0409560232068031e+01 -9.0089411740404515e+01 -9.0732032647951073e+01 0 0 0
1538 44 2 0.0000000000000000e+00 -2.8639717864635472e+01 -8.4219093493159519e+01 -9.1938470899844717e+01 0 0 0
2534 73 2 0.0000000000000000e+00 -8.7695199815361448e+01 -7.4999407114241876e+01 -9.9136894166309389e+01 0 0 0
2082 60 2 0.0000000000000000e+00 -3.9013883130831928e+01 -7.2410188254223840e+01 -9.9543887988150630e+01 0 0 0
6235 179 4 0.0000000000000000e+00 -1.0991444210933629e+02 -5.6149229410539618e+01 -9.9232922743035289e+01 0 0 0
6247 179 4 0.0000000000000000e+00 -9.7965098281604853e+01 -6.5334494559934228e+01 -9.9596879297981587e+01 0 0 0
6246 179 4 0.0000000000000000e+00 -9.3840899589710233e+01 -6.3385054641610019e+01 -9.1209192344700782e+01 0 0 0
6236 179 4 0.0000000000000000e+00 -1.0445734141725865e+02 -5.7411391966925294e+01 -9.1413309518096440e+01 0 0 0
5886 169 4 0.0000000000000000e+00 -8.7198952178295457e+01 -5.9599736986107231e+01 -1.0237461490069352e+02 0 0 0
3741 107 4 0.0000000000000000e+00 -6.7590157271669270e+01 -6.2013468855683676e+01 -1.0309032488540288e+02 0 0 0
3740 107 4 0.0000000000000000e+00 -6.8999394584570581e+01 -6.1752497584468948e+01 -9.3114122572229476e+01 0 0 0
2081 60 2 0.0000000000000000e+00 -4.3247223533290359e+01 -6.3858542356019314e+01 -9.6464882492827499e+01 0 0 0
6317 181 4 0.0000000000000000e+00 -4.8026710993158474e+01 -6.9316678540578565e+01 -8.9946333306820961e+01 0 0 0
4757 136 3 0.0000000000000000e+00 -1.1580131234663560e+02 -4.7253692954203892e+01 -9.8457528719180289e+01 0 0 0
4758 136 4 0.0000000000000000e+00 -1.1822688700831425e+02 -5.5569084223270821e+01 -9.2829994720030953e+01 0 0 0
5888 169 4 0.0000000000000000e+00 -9.5523397243333577e+01 -4.4343464370213354e+01 -9.1635279296227210e+01 0 0 0
5887 169 4 0.0000000000000000e+00 -9.2440141555686054e+01 -5.2883566818808696e+01 -9.6451108144153764e+01 0 0 0
4753 136 4 0.0000000000000000e+00 -8.2161847022763197e+01 -4.4413017571834295e+01 -9.9319317153280807e+01 0 0 0
4752 136 4 0.0000000000000000e+00 -7.3078759774260277e+01 -4.7280348116008824e+01 -1.0084507077655594e+02 0 0 0
5544 159 4 0.0000000000000000e+00 -6.2522790652302113e+01 -5.0269415592530429e+01 -9.3543642200903506e+01 0 0 0
2080 60 2 0.0000000000000000e+00 -4.6976819208684887e+01 -5.4606721369329968e+01 -9.8537732651251488e+01 0 0 0
2079 60 2 0.0000000000000000e+00 -5.1916111940404939e+01 -4.6624001733155005e+01 -9.4261814526873891e+01 0 0 0
3023 87 2 0.0000000000000000e+00 -3.8605896786787078e+01 -4.2699738446623023e+01 -9.7907094911311901e+01 0 0 0
929 27 2 0.0000000000000000e+00 -1.2542507106629382e+02 -3.4862638808059558e+01 -9.7779215891925091e+01 0 0 0
4756 136 4 0.0000000000000000e+00 -1.0994306618543105e+02 -4.0155400407909887e+01 -1.0106612340127006e+02 0 0 0
928 27 1 0.0000000000000000e+00 -1.1714661774381518e+02 -3.7601287804406752e+01 -9.4056470508804750e+01 0 0 0
2935 84 2 0.0000000000000000e+00 -1.1069842093424791e+02 -3.0009423786940619e+01 -9.7425638770401534e+01 0 0 0
4755 136 4 0.0000000000000000e+00 -9.9754918995802711e+01 -3.9533861336459474e+01 -1.0177139535436039e+02 0 0 0
2928 84 2 0.0000000000000000e+00 -8.7844527092729820e+01 -3.5388503651848431e+01 -9.2776053766260731e+01 0 0 0
2077 60 2 0.0000000000000000e+00 -6.8796753668541868e+01 -3.7689822219280508e+01 -9.0219661758227616e+01 0 0 0
2078 60 2 0.0000000000000000e+00 -5.9078203745359986e+01 -3.9925851683395777e+01 -9.0961354263535497e+01 0 0 0
3024 87 2 0.0000000000000000e+00 -2.8450706071847755e+01 -4.2090277635921822e+01 -1.0080805431068589e+02 0 0 0
930 27 2 0.0000000000000000e+00 -1.2812757733413818e+02 -2.5576061343259671e+01 -9.4298268376148300e+01 0 0 0
2936 84 2 0.0000000000000000e+00 -1.1830278882431942e+02 -2.7193666227248229e+01 -9.2433782510316334e+01 0 0 0
2929 84 2 0.0000000000000000e+00 -8.7622488538385113e+01 -2.6005793306922417e+01 -9.6074296684729276e+01 0 0 0
2930 84 1 0.0000000000000000e+00 -9.2301514334469346e+01 -1.8648519543928273e+01 -1.0045375177522990e+02 0 0 0
6262 179 3 0.0000000000000000e+00 -8.8559543579619046e+01 -1.6204937501111946e+01 -9.0405057784549300e+01 0 0 0
2074 60 2 0.0000000000000000e+00 -8.1626849959990949e+01 -1.8277333285888382e+01 -9.8823917621787544e+01 0 0 0
2075 60 2 0.0000000000000000e+00 -7.8645913359964723e+01 -2.3196801642155876e+01 -9.0440385624529924e+01 0 0 0
6523 187 4 0.0000000000000000e+00 -5.3054452956815844e+01 -1.6555849798162772e+01 -1.0162091455908039e+02 0 0 0
4550 130 4 0.0000000000000000e+00 -4.7843644312710524e+01 -2.5883007816192713e+01 -9.7171468736748608e+01 0 0 0
4548 130 4 0.0000000000000000e+00 -3.3577534153516140e+01 -2.5086911954376117e+01 -1.0042112324233720e+02 0 0 0
4549 130 4 0.0000000000000000e+00 -3.9357552343953564e+01 -2.3071561826152671e+01 -9.2696096926843850e+01 0 0 0
1719 50 1 0.0000000000000000e+00 -1.1384086830834062e+02 -9.5829679267363108e+00 -1.0173673204469759e+02 0 0 0
1720 50 2 0.0000000000000000e+00 -1.0543740582029223e+02 -6.7748293905146522e+00 -9.6179717697182397e+01 0 0 0
6261 179 4 0.0000000000000000e+00 -8.0089605400099359e+01 -1.2077708465994208e+01 -9.1082068177966889e+01 0 0 0