LAMMPS data file via write_data, version 5 Jun 2019, timestep = 380000000

7000 atoms
4 atom types
7290 bonds
3 bond types
6600 angles
2 angle types

-5.0000000000000000e+02 5.0000000000000000e+02 xlo xhi
-5.0000000000000000e+02 5.0000000000000000e+02 ylo yhi
-5.0000000000000000e+02 5.0000000000000000e+02 zlo zhi

Masses

1 1000
2 1000
3 1000
4 1000

Pair Coeffs # lj/cut

1 0.296 10
2 0.296 10
3 0.296 10
4 0.296 10

Angle Coeffs # cosine

1 2
2 2

Atoms # full

2550 73 2 0.0000000000000000e+00 -1.0538155294952327e+02 -4.3762812806682611e+01 -1.3527971777037607e+02 0 0 0
2551 73 2 0.0000000000000000e+00 -9.6719634945310659e+01 -4.0264857638312449e+01 -1.3947682496125771e+02 0 0 0
2552 73 1 0.0000000000000000e+00 -8.8783278492554984e+01 -3.5616648362250004e+01 -1.4235640733735883e+02 0 0 0
6499 186 4 0.0000000000000000e+00 -8.9615303977508830e+01 -2.4518402806700443e+01 -1.3633574498071687e+02 0 0 0
5915 169 4 0.0000000000000000e+00 -1.1989099086008179e+02 4.9773252866642705e+00 -1.3312611998713064e+02 0 0 0
2809 81 2 0.0000000000000000e+00 -1.4377955038753583e+02 -6.5919910490498992e+01 -1.2176684810942110e+02 0 0 0
5882 169 4 0.0000000000000000e+00 -1.4305286492628665e+02 -5.3422526920949714e+01 -1.2056873349326297e+02 0 0 0
5881 169 4 0.0000000000000000e+00 -1.4343372591863957e+02 -5.1275340358035763e+01 -1.3061118904658039e+02 0 0 0
2808 81 2 0.0000000000000000e+00 -1.3650658120034905e+02 -6.1764648708306254e+01 -1.2681788886771241e+02 0 0 0
2807 81 2 0.0000000000000000e+00 -1.3062390525284692e+02 -5.7159916016323194e+01 -1.1993089651899659e+02 0 0 0
6231 179 4 0.0000000000000000e+00 -1.1376624520308680e+02 -5.7468593290715653e+01 -1.2465220507587448e+02 0 0 0
2549 73 2 0.0000000000000000e+00 -1.0693657893989131e+02 -4.9680618311872820e+01 -1.2715071937914792e+02 0 0 0
6497 186 4 0.0000000000000000e+00 -1.0278307333896954e+02 -3.1999164147710328e+01 -1.2372944376301874e+02 0 0 0
6498 186 4 0.0000000000000000e+00 -9.6905755828681933e+01 -2.7163327299988367e+01 -1.3008286772254604e+02 0 0 0
5914 169 4 0.0000000000000000e+00 -1.1310371828601740e+02 -2.1662443436554732e+00 -1.3094366207522651e+02 0 0 0
5913 169 4 0.0000000000000000e+00 -1.0388295573471467e+02 -3.5073401592487441e+00 -1.2950594720446341e+02 0 0 0
5912 169 3 0.0000000000000000e+00 -9.4571180353571535e+01 -2.7565991600011981e+00 -1.2526344968977136e+02 0 0 0
5910 169 4 0.0000000000000000e+00 -9.9900627260676657e+01 1.0888830457921301e+01 -1.2151530337774982e+02 0 0 0
5908 169 4 0.0000000000000000e+00 -1.0241596925944660e+02 2.5281081883174028e+01 -1.2636563003304738e+02 0 0 0
5907 169 4 0.0000000000000000e+00 -9.4033691541335301e+01 3.0404867700291785e+01 -1.2368671735241881e+02 0 0 0
2810 81 2 0.0000000000000000e+00 -1.4887469951265302e+02 -6.4342808636135004e+01 -1.1337707980673017e+02 0 0 0
5883 169 4 0.0000000000000000e+00 -1.4451257293376284e+02 -5.5073548724598822e+01 -1.1065085200386856e+02 0 0 0
2806 81 2 0.0000000000000000e+00 -1.2366099354402049e+02 -5.8489147130981799e+01 -1.1239558161510291e+02 0 0 0
6232 179 4 0.0000000000000000e+00 -1.1791487268504781e+02 -5.2231793380259418e+01 -1.1741347478205134e+02 0 0 0
2547 73 2 0.0000000000000000e+00 -1.0560547283515001e+02 -5.0444914163799467e+01 -1.0863777212499308e+02 0 0 0
4751 136 4 0.0000000000000000e+00 -8.5907791889977801e+01 -5.6803764424139587e+01 -1.1540407731491561e+02 0 0 0
2527 73 2 0.0000000000000000e+00 -1.3188707491711378e+02 -4.7676389030361229e+01 -1.0878049669659187e+02 0 0 0
2526 73 2 0.0000000000000000e+00 -1.3099728367776243e+02 -4.4467091999528421e+01 -1.1858789506575013e+02 0 0 0
6233 179 4 0.0000000000000000e+00 -1.1685297606338898e+02 -4.7455808635917286e+01 -1.0871574141398185e+02 0 0 0
2548 73 2 0.0000000000000000e+00 -1.0830808287841609e+02 -4.6543111475528853e+01 -1.1711385366085953e+02 0 0 0
4752 136 4 0.0000000000000000e+00 -9.1240354190595156e+01 -4.8635383578407151e+01 -1.1327935168678600e+02 0 0 0
4753 136 4 0.0000000000000000e+00 -9.7118705728828814e+01 -4.1508532927570478e+01 -1.0945198327271700e+02 0 0 0
2521 73 2 0.0000000000000000e+00 -1.6785467010199352e+02 -2.9472179430227733e+01 -1.0660493520151022e+02 0 0 0
2523 73 2 0.0000000000000000e+00 -1.4858647817230045e+02 -3.0230413738325897e+01 -1.0678857234667397e+02 0 0 0
2524 73 1 0.0000000000000000e+00 -1.3994765702075517e+02 -3.5274778459825207e+01 -1.0831253393569820e+02 0 0 0
2525 73 2 0.0000000000000000e+00 -1.3194358663737114e+02 -3.5178978296004686e+01 -1.1414064055717850e+02 0 0 0
6496 186 4 0.0000000000000000e+00 -1.0561143082771657e+02 -3.1074842910102284e+01 -1.1449096027555809e+02 0 0 0
6495 186 4 0.0000000000000000e+00 -1.1126802946228582e+02 -3.3269529778242891e+01 -1.0635636577541376e+02 0 0 0
4754 136 4 0.0000000000000000e+00 -1.0138533996131385e+02 -3.3739703272702471e+01 -1.0591100425840203e+02 0 0 0
2067 60 2 0.0000000000000000e+00 -1.1060563634249984e+02 -2.0507483692571061e+01 -1.1291804059666599e+02 0 0 0
2068 60 2 0.0000000000000000e+00 -1.0409928075882927e+02 -1.6684158112905340e+01 -1.1909577631171580e+02 0 0 0
2069 60 1 0.0000000000000000e+00 -9.7648706891244089e+01 -9.5732636332231618e+00 -1.1694137846655238e+02 0 0 0
2070 60 2 0.0000000000000000e+00 -9.4548122698138357e+01 -4.7403306871140058e+00 -1.0887684931665345e+02 0 0 0
5911 169 4 0.0000000000000000e+00 -9.6781137904234214e+01 2.9316180089953900e+00 -1.1711197652597075e+02 0 0 0
4761 137 4 0.0000000000000000e+00 -1.0688039538910608e+02 1.1087406018952160e+01 -1.1214671663295117e+02 0 0 0
3311 95 2 0.0000000000000000e+00 -1.2692826508458577e+02 2.0987792741983366e+01 -1.0820830169577124e+02 0 0 0
3310 95 2 0.0000000000000000e+00 -1.1697365549063029e+02 2.2618462684316562e+01 -1.1043156280917785e+02 0 0 0
5909 169 4 0.0000000000000000e+00 -1.0409724859189680e+02 1.9209221917529238e+01 -1.1831617526619505e+02 0 0 0
1799 52 2 0.0000000000000000e+00 -9.2468602071368707e+01 2.1992046489264780e+01 -1.0819872257554557e+02 0 0 0
1800 52 2 0.0000000000000000e+00 -8.9087642830341338e+01 1.8628370705487750e+01 -1.1773023241845712e+02 0 0 0
2543 73 2 0.0000000000000000e+00 -9.7362601546666468e+01 -8.0542444864449067e+01 -9.7122667837861059e+01 0 0 0
3745 107 4 0.0000000000000000e+00 -1.3847051004274695e+02 -7.4348495323942061e+01 -9.5591805439299193e+01 0 0 0
2544 73 2 0.0000000000000000e+00 -9.9672966686163619e+01 -7.0400693969474119e+01 -9.8813090758049711e+01 0 0 0
6254 179 4 0.0000000000000000e+00 -1.0855689057105742e+02 -7.1206303374696773e+01 -9.2809586149362275e+01 0 0 0
6511 187 4 0.0000000000000000e+00 -8.7779811659795286e+01 -6.7737161031212196e+01 -9.3250421247306448e+01 0 0 0
2811 81 1 0.0000000000000000e+00 -1.4672849863836771e+02 -6.2445194349918218e+01 -1.0361496414980728e+02 0 0 0
2812 81 2 0.0000000000000000e+00 -1.5065518245218024e+02 -6.1939368203209526e+01 -9.4620398031204417e+01 0 0 0
5884 169 3 0.0000000000000000e+00 -1.4627735266956572e+02 -5.0975042251600399e+01 -1.0150279494412912e+02 0 0 0
5885 169 4 0.0000000000000000e+00 -1.3989885685559332e+02 -5.1946313289850316e+01 -9.3851228496132293e+01 0 0 0
2805 81 2 0.0000000000000000e+00 -1.2154970662794531e+02 -5.8880045519369801e+01 -1.0290501999253684e+02 0 0 0
2804 81 1 0.0000000000000000e+00 -1.1610487223927775e+02 -5.8796722720195184e+01 -9.4343408693679251e+01 0 0 0
2546 73 2 0.0000000000000000e+00 -9.9245904630837657e+01 -5.4193256216401444e+01 -1.0212915864403422e+02 0 0 0
2545 73 1 0.0000000000000000e+00 -9.4538823929875448e+01 -6.1607221281137448e+01 -9.8265993328194128e+01 0 0 0
6492 186 4 0.0000000000000000e+00 -1.3971729704606423e+02 -3.6868550578328119e+01 -9.9179268257501192e+01 0 0 0
2528 73 2 0.0000000000000000e+00 -1.2614759192208967e+02 -4.2977706510432398e+01 -1.0179332036493024e+02 0 0 0
6234 179 3 0.0000000000000000e+00 -1.1486879328423393e+02 -4.8770271955904590e+01 -9.9032848868632584e+01 0 0 0
6514 187 3 0.0000000000000000e+00 -8.5757137793943755e+01 -4.2301774569681214e+01 -1.0217701308452403e+02 0 0 0
2522 73 2 0.0000000000000000e+00 -1.5791412658067588e+02 -2.9823609791418708e+01 -1.0277863244363645e+02 0 0 0
6493 186 3 0.0000000000000000e+00 -1.3058409685943272e+02 -3.3475451886618686e+01 -1.0245168165805872e+02 0 0 0
6494 186 4 0.0000000000000000e+00 -1.2121307739802904e+02 -3.2681327148021204e+01 -1.0375601182289392e+02 0 0 0
4755 136 4 0.0000000000000000e+00 -9.7771142317235899e+01 -2.4894623589301467e+01 -1.0323127869529102e+02 0 0 0
6515 187 4 0.0000000000000000e+00 -8.7262434300054466e+01 -3.2279519611748171e+01 -1.0365586755441980e+02 0 0 0
2066 60 2 0.0000000000000000e+00 -1.1680459790019933e+02 -2.2647499439895824e+01 -1.0504713113213749e+02 0 0 0
2929 84 2 0.0000000000000000e+00 -1.2265708546831534e+02 -2.2073317407162751e+01 -9.3676027581102716e+01 0 0 0
2928 84 2 0.0000000000000000e+00 -1.2039207493210489e+02 -1.4270669623558597e+01 -9.9505431671446487e+01 0 0 0
4756 136 4 0.0000000000000000e+00 -9.8945803761494005e+01 -2.0125078841207909e+01 -9.4432921559956711e+01 0 0 0
5544 159 4 0.0000000000000000e+00 -8.6346282561467859e+01 -1.7216732741190775e+01 -9.3577688039508587e+01 0 0 0
1721 50 2 0.0000000000000000e+00 -1.3751524874560292e+02 3.5852452962799841e+00 -9.8790110936911546e+01 0 0 0
2927 84 2 0.0000000000000000e+00 -1.1457566526947571e+02 -6.3836401457645389e+00 -9.9054172151951079e+01 0 0 0
2926 84 2 0.0000000000000000e+00 -1.0561790040823918e+02 -3.5225502165621077e+00 -9.7679519619739125e+01 0 0 0
2071 60 2 0.0000000000000000e+00 -8.6436989398640023e+01 -5.2912938030106471e-01 -1.0502572265068817e+02 0 0 0
1722 50 2 0.0000000000000000e+00 -1.3157940669556368e+02 9.6185705995205595e+00 -1.0403817774139289e+02 0 0 0
1723 50 2 0.0000000000000000e+00 -1.2502035515158386e+02 1.3738596613735645e+01 -9.8683919500101894e+01 0 0 0
1724 50 2 0.0000000000000000e+00 -1.1613005040451127e+02 1.1814274337658563e+01 -1.0257833144765262e+02 0 0 0
1725 50 2 0.0000000000000000e+00 -1.0957179177899832e+02 5.2123117178929270e+00 -1.0004280117532724e+02 0 0 0
4762 137 4 0.0000000000000000e+00 -1.0177382861147254e+02 1.3999328641642006e+01 -1.0435980955123097e+02 0 0 0
4763 137 4 0.0000000000000000e+00 -9.9417019687006686e+01 1.4063237326970397e+01 -9.4863962338800292e+01 0 0 0
2072 60 2 0.0000000000000000e+00 -8.7252668757912716e+01 9.1159166930201661e+00 -1.0275591795778587e+02 0 0 0
3312 95 2 0.0000000000000000e+00 -1.3208816536950343e+02 2.4537211840470171e+01 -1.0050874230378031e+02 0 0 0
3718 107 4 0.0000000000000000e+00 -1.1749079785394781e+02 2.2732504084601310e+01 -9.3668538768047611e+01 0 0 0
1798 52 2 0.0000000000000000e+00 -9.8958415092430926e+01 2.8358700769654089e+01 -1.0485228590502366e+02 0 0 0
6298 180 4 0.0000000000000000e+00 -1.1038767614046110e+02 2.4750436643904838e+01 -1.0210057478613528e+02 0 0 0
6299 180 4 0.0000000000000000e+00 -1.0177605869451953e+02 2.3266152215814202e+01 -9.7069301931127242e+01 0 0 0
6300 180 4 0.0000000000000000e+00 -9.2284486028447802e+01 2.2292765635262086e+01 -9.4356775841200573e+01 0 0 0
5531 159 4 0.0000000000000000e+00 -8.4502846957185383e+01 3.1342471815291315e+01 -1.0027040745487632e+02 0 0 0
6252 179 4 0.0000000000000000e+00 -1.1940203120975583e+02 -8.2024611925202322e+01 -8.0110118460316457e+01 0 0 0
2542 73 2 0.0000000000000000e+00 -1.0389838512981183e+02 -8.0495859602470290e+01 -8.9167872447089152e+01 0 0 0
2541 73 2 0.0000000000000000e+00 -1.0576431502110985e+02 -8.2254453720660152e+01 -7.9697725593911684e+01 0 0 0
2813 81 2 0.0000000000000000e+00 -1.4688082443173522e+02 -6.6878515030358628e+01 -8.6752699862467523e+01 0 0 0
3744 107 4 0.0000000000000000e+00 -1.3195971487494131e+02 -7.0675338613982248e+01 -8.8255303811412347e+01 0 0 0
6253 179 4 0.0000000000000000e+00 -1.1328187962232910e+02 -7.5325508641238969e+01 -8.5542455852952116e+01 0 0 0
2803 81 2 0.0000000000000000e+00 -1.1836682936104422e+02 -6.5779384850560021e+01 -8.7148801470320976e+01 0 0 0
6240 179 4 0.0000000000000000e+00 -1.0017683258739541e+02 -7.0628618878128080e+01 -8.5394625211575359e+01 0 0 0
6241 179 3 0.0000000000000000e+00 -1.0665480549351471e+02 -6.6853315711340883e+01 -7.8767650504792201e+01 0 0 0
6239 179 4 0.0000000000000000e+00 -9.0436508954688236e+01 -7.0781450298545039e+01 -8.4631469877583328e+01 0 0 0
3743 107 4 0.0000000000000000e+00 -1.2637270872752613e+02 -6.1792219118449424e+01 -8.8305168277634593e+01 0 0 0
3742 107 3 0.0000000000000000e+00 -1.2779050395757636e+02 -5.7400919666170992e+01 -7.9617488952010888e+01 0 0 0
2531 73 1 0.0000000000000000e+00 -1.1755706305801090e+02 -5.3349026162539403e+01 -7.9241580570781622e+01 0 0 0
6235 179 4 0.0000000000000000e+00 -1.0789892836022291e+02 -5.0760584911972515e+01 -9.2122002211087931e+01 0 0 0
6255 179 3 0.0000000000000000e+00 -1.0272851231377295e+02 -6.3204679825803794e+01 -9.0435105018349603e+01 0 0 0
6236 179 4 0.0000000000000000e+00 -1.0275472227860666e+02 -5.0727042449672517e+01 -8.3180386655984535e+01 0 0 0
6256 179 4 0.0000000000000000e+00 -9.5200088056639018e+01 -5.7252297417671933e+01 -8.8871891124350029e+01 0 0 0
6237 179 4 0.0000000000000000e+00 -9.5005954488904919e+01 -5.5410548733735325e+01 -7.9016759889026076e+01 0 0 0
1380 40 2 0.0000000000000000e+00 -8.4456418571100514e+01 -5.2300524253199640e+01 -8.1075557967793955e+01 0 0 0
6491 186 4 0.0000000000000000e+00 -1.4275025381319080e+02 -3.8712389473825205e+01 -9.0056058211504364e+01 0 0 0
5886 169 4 0.0000000000000000e+00 -1.3346858210967494e+02 -4.9689425880745063e+01 -8.6717098404728915e+01 0 0 0
5887 169 4 0.0000000000000000e+00 -1.2668511139256556e+02 -4.6316302441316324e+01 -7.9819568155074620e+01 0 0 0
2529 73 2 0.0000000000000000e+00 -1.2334881871536219e+02 -4.2554786168607613e+01 -9.1846674177867342e+01 0 0 0
2530 73 2 0.0000000000000000e+00 -1.1722473291597031e+02 -4.8974683503483980e+01 -8.8465248431518091e+01 0 0 0
6259 179 4 0.0000000000000000e+00 -1.0218274239451530e+02 -3.7720792120171517e+01 -8.4703857605443773e+01 0 0 0
6260 179 4 0.0000000000000000e+00 -1.1152649448557987e+02 -3.8460648497103577e+01 -8.7300266329659252e+01 0 0 0
6257 179 4 0.0000000000000000e+00 -9.1541298103110009e+01 -4.7987820427783788e+01 -8.7578533210504503e+01 0 0 0
6258 179 4 0.0000000000000000e+00 -9.3519427266891384e+01 -3.8005839041084116e+01 -9.0040951809722472e+01 0 0 0
2210 64 2 0.0000000000000000e+00 -8.9976469519435028e+01 -4.1968547880878305e+01 -7.8898755972259409e+01 0 0 0
6490 186 4 0.0000000000000000e+00 -1.5209978904050126e+02 -3.4093888981259738e+01 -8.8909114847505847e+01 0 0 0
6489 186 4 0.0000000000000000e+00 -1.4729989919553984e+02 -2.8303581966159594e+01 -8.2663620768490119e+01 0 0 0
6262 179 3 0.0000000000000000e+00 -1.2767356643695742e+02 -3.3263190032038473e+01 -7.9860146596627686e+01 0 0 0
2930 84 1 0.0000000000000000e+00 -1.2988813566658300e+02 -2.7773474830425645e+01 -8.9269718039692307e+01 0 0 0
6261 179 4 0.0000000000000000e+00 -1.1861823558616229e+02 -3.4422822890997956e+01 -8.2502973039993933e+01 0 0 0
6317 181 4 0.0000000000000000e+00 -1.0122015269751373e+02 -2.8808423753332779e+01 -8.0447465130624778e+01 0 0 0
6315 181 4 0.0000000000000000e+00 -8.7446601695120577e+01 -3.0266959848808881e+01 -9.1926901727443351e+01 0 0 0
6316 181 4 0.0000000000000000e+00 -9.2337387200476414e+01 -2.6736513219447232e+01 -8.3906363891613537e+01 0 0 0
2931 84 2 0.0000000000000000e+00 -1.3005989930227778e+02 -2.1224400740143501e+01 -8.1086905473685462e+01 0 0 0
4760 136 4 0.0000000000000000e+00 -1.3602837389979888e+02 -1.5264141736999374e+01 -8.8535066314055470e+01 0 0 0
4759 136 4 0.0000000000000000e+00 -1.2627691302877029e+02 -1.3001033609700002e+01 -8.9425077498214691e+01 0 0 0
4758 136 4 0.0000000000000000e+00 -1.1641539365119770e+02 -1.4270740193781986e+01 -8.9810151474004115e+01 0 0 0
928 27 1 0.0000000000000000e+00 -1.1315820821972066e+02 -1.1796886604683371e+01 -8.0636824218420543e+01 0 0 0
4757 136 3 0.0000000000000000e+00 -1.0620968489724252e+02 -1.5264668921534561e+01 -8.9093374854983438e+01 0 0 0
5545 159 4 0.0000000000000000e+00 -8.5686959514017417e+01 -1.9383185609814397e+01 -8.3725833908852735e+01 0 0 0
1720 50 2 0.0000000000000000e+00 -1.3773575039988364e+02 -4.4786640742982153e-01 -9.0017638724822362e+01 0 0 0
1719 50 1 0.0000000000000000e+00 -1.3288023632391099e+02 -3.4809258908933574e+00 -8.1665413289847208e+01 0 0 0
927 27 2 0.0000000000000000e+00 -1.1772348286894447e+02 -2.8895049796442240e+00 -8.2218221764569932e+01 0 0 0
2925 84 2 0.0000000000000000e+00 -9.9772004408687138e+01 -3.1173740521199145e+00 -8.9272634474972108e+01 0 0 0
2924 84 2 0.0000000000000000e+00 -1.0083091854589856e+02 -4.8121960093916476e+00 -7.9597809686830885e+01 0 0 0
2205 63 2 0.0000000000000000e+00 -1.6956189972741990e+02 1.7356662735421395e+01 -9.0229076731359257e+01 0 0 0
1717 50 2 0.0000000000000000e+00 -1.4701339110736009e+02 4.4277863399292068e+00 -8.4462613004876232e+01 0 0 0
1716 50 2 0.0000000000000000e+00 -1.4817192535013803e+02 1.3674008882769408e+01 -8.7856156248874285e+01 0 0 0
1718 50 2 0.0000000000000000e+00 -1.3834959752782740e+02 4.6833488611210088e+00 -7.9226904213462547e+01 0 0 0
926 27 2 0.0000000000000000e+00 -1.1879203483832144e+02 6.8480465951746190e+00 -7.8821812190637786e+01 0 0 0
1726 50 1 0.0000000000000000e+00 -1.0339000225436070e+02 4.8385688923394881e+00 -9.2165888420919600e+01 0 0 0
1727 50 2 0.0000000000000000e+00 -1.0717362946619352e+02 5.2296941180365284e+00 -8.2645905475913807e+01 0 0 0
4764 137 3 0.0000000000000000e+00 -1.0143185966380412e+02 1.3304468182586406e+01 -8.5172760160356418e+01 0 0 0
3726 107 4 0.0000000000000000e+00 -9.1204692177804830e+01 9.3995472978370458e+00 -7.8797803977139822e+01 0 0 0
2204 63 2 0.0000000000000000e+00 -1.6995411454498270e+02 1.8725378035139919e+01 -8.0045139230741469e+01 0 0 0
4791 137 4 0.0000000000000000e+00 -1.5476115385495478e+02 2.8209761212959407e+01 -8.0775464977684265e+01 0 0 0
3314 95 2 0.0000000000000000e+00 -1.3190093030047177e+02 2.5219052384820692e+01 -8.1679977579374466e+01 0 0 0
3313 95 2 0.0000000000000000e+00 -1.3499750458097944e+02 2.3575373316785893e+01 -9.1100808871415936e+01 0 0 0
3717 107 4 0.0000000000000000e+00 -1.1366368900514898e+02 2.4683519179088577e+01 -8.4702313459433569e+01 0 0 0
3719 107 4 0.0000000000000000e+00 -1.2519191793060990e+02 2.8093653585749017e+01 -9.0647016831176956e+01 0 0 0
5901 169 4 0.0000000000000000e+00 -8.5596070565153951e+01 2.9214703319087686e+01 -8.0604837198922439e+01 0 0 0
3725 107 4 0.0000000000000000e+00 -8.9933557751737325e+01 1.9125278354293844e+01 -8.2670169291795432e+01 0 0 0
3724 107 4 0.0000000000000000e+00 -9.6875927517133874e+01 2.5913461186364110e+01 -8.2158695931206751e+01 0 0 0
6250 179 4 0.0000000000000000e+00 -1.2833603483759740e+02 -9.2650213165270785e+01 -7.0817750324679338e+01 0 0 0
2816 81 2 0.0000000000000000e+00 -1.2796629534082268e+02 -8.1351259512161093e+01 -7.3760910074022561e+01 0 0 0
6251 179 4 0.0000000000000000e+00 -1.1973267961622516e+02 -8.7293667674102494e+01 -7.1290383523332437e+01 0 0 0
2540 73 2 0.0000000000000000e+00 -1.1011806626861579e+02 -8.6137188783660761e+01 -7.1449292173017014e+01 0 0 0
2814 81 2 0.0000000000000000e+00 -1.4411109460516903e+02 -7.0613688368195199e+01 -7.8205126012325550e+01 0 0 0
2815 81 2 0.0000000000000000e+00 -1.3649702326046406e+02 -7.6345273289252390e+01 -7.7215266474859249e+01 0 0 0
2801 81 2 0.0000000000000000e+00 -1.3071169795295498e+02 -6.7486305719454720e+01 -7.2171037231141881e+01 0 0 0
2817 81 2 0.0000000000000000e+00 -1.2165283681236251e+02 -7.5650513765198170e+01 -6.9020148837409565e+01 0 0 0
2818 81 1 0.0000000000000000e+00 -1.1269893195070900e+02 -7.4144070499618891e+01 -7.2631713283408004e+01 0 0 0
2802 81 2 0.0000000000000000e+00 -1.2227005762914251e+02 -6.8011917236037519e+01 -7.7884595533093162e+01 0 0 0
2819 81 2 0.0000000000000000e+00 -1.0472664152572766e+02 -7.3212266213262595e+01 -6.6942073342643297e+01 0 0 0
3741 107 4 0.0000000000000000e+00 -1.3066606264185125e+02 -5.7392170621230775e+01 -7.0129046166312534e+01 0 0 0
2532 73 2 0.0000000000000000e+00 -1.1651852984880674e+02 -5.8929683358887424e+01 -7.1768111967301181e+01 0 0 0
6242 179 4 0.0000000000000000e+00 -1.0643372138506597e+02 -5.7777554756061726e+01 -7.4840168600759043e+01 0 0 0
6243 179 4 0.0000000000000000e+00 -1.0751915439257478e+02 -5.1026283287518936e+01 -6.7837171085158005e+01 0 0 0
6238 179 4 0.0000000000000000e+00 -8.8390925466377169e+01 -6.3744438164854500e+01 -7.7901617130885370e+01 0 0 0
5888 169 4 0.0000000000000000e+00 -1.2359833863985718e+02 -4.4859204250558975e+01 -7.0780505304738554e+01 0 0 0
2209 64 1 0.0000000000000000e+00 -9.9388872427752901e+01 -4.4285040433380217e+01 -7.6355176098101495e+01 0 0 0
2208 64 2 0.0000000000000000e+00 -1.0837195496635175e+02 -4.1474952236029345e+01 -7.4469248431728630e+01 0 0 0
6320 181 4 0.0000000000000000e+00 -8.5204382664797805e+01 -4.6256843115929911e+01 -6.8287634411626740e+01 0 0 0
6319 181 4 0.0000000000000000e+00 -8.9637860107348473e+01 -3.7142512221925244e+01 -6.9378350787615474e+01 0 0 0
6264 179 4 0.0000000000000000e+00 -1.3121932529191164e+02 -3.5532606149727172e+01 -6.6433724758048527e+01 0 0 0
6263 179 4 0.0000000000000000e+00 -1.3482018106167570e+02 -3.0134493582242069e+01 -7.4315829547488320e+01 0 0 0
2207 64 2 0.0000000000000000e+00 -1.1416450638737440e+02 -3.5502819320895036e+01 -6.9636318699303004e+01 0 0 0
2206 64 2 0.0000000000000000e+00 -1.2176359272152486e+02 -2.9763175311200730e+01 -6.6385422955291233e+01 0 0 0
6318 181 3 0.0000000000000000e+00 -9.8196476732831073e+01 -3.4373848345421131e+01 -7.2751954414938467e+01 0 0 0
6488 186 4 0.0000000000000000e+00 -1.4196387349663320e+02 -2.2871206780133047e+01 -7.6205465136740131e+01 0 0 0
6487 186 4 0.0000000000000000e+00 -1.4121831480570208e+02 -1.2644764124771527e+01 -7.8156973489846891e+01 0 0 0
2932 84 2 0.0000000000000000e+00 -1.2486511989900612e+02 -2.1606158885426773e+01 -7.2937048072768661e+01 0 0 0
930 27 2 0.0000000000000000e+00 -1.0599678799537681e+02 -1.7393621278063751e+01 -6.6197684956338762e+01 0 0 0
929 27 2 0.0000000000000000e+00 -1.0545220146232977e+02 -1.2317696663832935e+01 -7.4309944928695501e+01 0 0 0
5546 159 4 0.0000000000000000e+00 -8.6444306258713354e+01 -1.1780285880460738e+01 -7.7140836638457642e+01 0 0 0
4795 137 4 0.0000000000000000e+00 -1.4807746540079447e+02 -6.4315696904844959e+00 -6.9472955038586761e+01 0 0 0
4794 137 4 0.0000000000000000e+00 -1.4863527894664463e+02 1.2075868322094974e+00 -7.6056814286939982e+01 0 0 0
6486 186 3 0.0000000000000000e+00 -1.3807519117351279e+02 -4.5361883529592459e+00 -7.2034886636856655e+01 0 0 0
6287 180 4 0.0000000000000000e+00 -1.2654735696261704e+02 -1.0832176734896863e+00 -6.6418820805125804e+01 0 0 0
6485 186 4 0.0000000000000000e+00 -1.3850923577151059e+02 3.9584993562582906e+00 -6.6341618489601956e+01 0 0 0
1729 50 2 0.0000000000000000e+00 -1.1519025235683510e+02 3.8055342431658428e+00 -6.5247103640579738e+01 0 0 0
2923 84 1 0.0000000000000000e+00 -9.9925814973724712e+01 -3.1113087924789724e+00 -6.9706666714690655e+01 0 0 0
3727 107 4 0.0000000000000000e+00 -9.0005093212552765e+01 1.9421366935719637e+00 -7.1811768266390814e+01 0 0 0
3728 107 3 0.0000000000000000e+00 -8.9373406010270045e+01 -7.5308326934068628e+00 -6.8159103804698489e+01 0 0 0
1748 50 2 0.0000000000000000e+00 -1.5825562809573069e+02 1.4088418379835964e+01 -6.9732799265728246e+01 0 0 0
4793 137 4 0.0000000000000000e+00 -1.4714045141837420e+02 1.0595376335409830e+01 -7.5188505134133990e+01 0 0 0
6484 186 4 0.0000000000000000e+00 -1.4063299813727386e+02 1.3960151118288012e+01 -6.6010217475935050e+01 0 0 0
6289 180 4 0.0000000000000000e+00 -1.3237744082586059e+02 1.6696538824688194e+01 -7.2924160927480372e+01 0 0 0
6288 180 4 0.0000000000000000e+00 -1.2989756935276714e+02 8.1638791253575729e+00 -7.0310194386160660e+01 0 0 0
925 27 2 0.0000000000000000e+00 -1.2015275543506230e+02 1.5770593749601447e+01 -7.4712140517930607e+01 0 0 0
1728 50 2 0.0000000000000000e+00 -1.0896216697722870e+02 4.5781004637335920e+00 -7.3202906527324259e+01 0 0 0
4765 137 4 0.0000000000000000e+00 -1.0224469667856067e+02 1.3062245580677116e+01 -7.5067719234651136e+01 0 0 0
4766 137 4 0.0000000000000000e+00 -9.9865439055967627e+01 8.7909966152885932e+00 -6.6644997479347978e+01 0 0 0
2203 63 2 0.0000000000000000e+00 -1.7599230341589478e+02 2.3848870030057999e+01 -7.4204508474154125e+01 0 0 0
1747 50 1 0.0000000000000000e+00 -1.5768791849927339e+02 2.3578378043441607e+01 -6.8400024182601484e+01 0 0 0
4792 137 3 0.0000000000000000e+00 -1.5141718863306644e+02 1.9336366224145785e+01 -7.7370627423968131e+01 0 0 0
6483 186 4 0.0000000000000000e+00 -1.4350754699467970e+02 2.2678864493294146e+01 -6.8180535962835052e+01 0 0 0
6290 180 3 0.0000000000000000e+00 -1.3501877994640941e+02 2.6983829527810695e+01 -7.0857670982765924e+01 0 0 0
924 27 2 0.0000000000000000e+00 -1.2488280208975091e+02 1.8112989468379777e+01 -6.6333754126621685e+01 0 0 0
3315 95 1 0.0000000000000000e+00 -1.2449149648530482e+02 2.5562211389440773e+01 -7.4964361007652613e+01 0 0 0
3316 95 2 0.0000000000000000e+00 -1.1964448992414410e+02 3.1364320219575806e+01 -6.8855027265084800e+01 0 0 0
3716 107 4 0.0000000000000000e+00 -1.0765175045256301e+02 2.2271230343692078e+01 -7.6930410741775617e+01 0 0 0
3715 107 4 0.0000000000000000e+00 -1.0194529194527084e+02 2.9633224631451924e+01 -7.3354235882796431e+01 0 0 0
5900 169 4 0.0000000000000000e+00 -9.2210840577804333e+01 2.8375007117785046e+01 -7.3282477304088843e+01 0 0 0
6249 179 4 0.0000000000000000e+00 -1.3117557717894792e+02 -9.2718867493924890e+01 -6.1270286969007493e+01 0 0 0
2539 73 2 0.0000000000000000e+00 -1.1352296523751160e+02 -9.2460966346039712e+01 -6.4433453983858513e+01 0 0 0
2538 73 1 0.0000000000000000e+00 -1.1984898301050799e+02 -9.1668822928921188e+01 -5.5973788059745004e+01 0 0 0
6248 179 3 0.0000000000000000e+00 -1.2686673368225694e+02 -8.3986234475007080e+01 -5.9610355982496792e+01 0 0 0
2485 71 2 0.0000000000000000e+00 -9.4779767062009597e+01 -8.4639873399640095e+01 -6.4016088272681273e+01 0 0 0
2484 71 2 0.0000000000000000e+00 -8.7201937776935665e+01 -7.8807979222917595e+01 -6.2109906231410612e+01 0 0 0
3739 107 4 0.0000000000000000e+00 -1.3881091877754253e+02 -7.1145464616922496e+01 -5.6568858413778472e+01 0 0 0
3740 107 4 0.0000000000000000e+00 -1.3423537647468905e+02 -6.4390744293595972e+01 -6.3094578192526811e+01 0 0 0
6246 179 4 0.0000000000000000e+00 -1.2451823285164349e+02 -6.4809487500108972e+01 -5.8202434754285392e+01 0 0 0
6247 179 4 0.0000000000000000e+00 -1.2368103695786260e+02 -7.4751920572417617e+01 -5.7963757785672861e+01 0 0 0
2534 73 2 0.0000000000000000e+00 -1.1460460429501455e+02 -7.1112149558607996e+01 -5.6797660047371323e+01 0 0 0
2533 73 2 0.0000000000000000e+00 -1.1551363478609878e+02 -6.4403982981572966e+01 -6.3877081655207228e+01 0 0 0
2821 81 2 0.0000000000000000e+00 -1.0015291426267804e+02 -6.7862615635053942e+01 -5.5633722998362380e+01 0 0 0
6245 179 4 0.0000000000000000e+00 -1.2294043032471730e+02 -5.6642796060661489e+01 -6.3563685507042820e+01 0 0 0
6244 179 4 0.0000000000000000e+00 -1.1438312987192744e+02 -5.2506076464096004e+01 -6.1083312994477382e+01 0 0 0
2820 81 2 0.0000000000000000e+00 -1.0176778173254515e+02 -6.3701361331635347e+01 -6.4347456402457141e+01 0 0 0
3733 107 4 0.0000000000000000e+00 -1.0205840019001356e+02 -5.2501164567738300e+01 -5.6644746915286106e+01 0 0 0
3734 107 4 0.0000000000000000e+00 -1.0803724969285418e+02 -5.9856918779911879e+01 -5.2907093996675705e+01 0 0 0
6321 181 4 0.0000000000000000e+00 -8.9927168990415964e+01 -5.3561060292288758e+01 -6.2955371442337622e+01 0 0 0
6322 181 4 0.0000000000000000e+00 -8.8643327945338484e+01 -6.2991975658348906e+01 -6.1100998870864508e+01 0 0 0
6265 179 4 0.0000000000000000e+00 -1.2961412034744387e+02 -3.9926488142479343e+01 -5.7612011756282556e+01 0 0 0
5889 169 4 0.0000000000000000e+00 -1.1676651248558341e+02 -4.3305420115218482e+01 -6.3925146697334327e+01 0 0 0
5890 169 4 0.0000000000000000e+00 -1.1255505825258309e+02 -4.2757834356606622e+01 -5.4475596681173577e+01 0 0 0
3732 107 4 0.0000000000000000e+00 -9.8140397066313611e+01 -4.3840404511513981e+01 -5.9199321609151689e+01 0 0 0
933 27 2 0.0000000000000000e+00 -1.2670281579977467e+02 -2.6202446828744314e+01 -5.3834499572286823e+01 0 0 0
932 27 2 0.0000000000000000e+00 -1.1737521701205210e+02 -2.7492781879666808e+01 -5.6941651137609661e+01 0 0 0
931 27 2 0.0000000000000000e+00 -1.0828451860475963e+02 -2.3130717792405406e+01 -5.8639418663372297e+01 0 0 0
1385 40 2 0.0000000000000000e+00 -8.5110415032563523e+01 -3.4561923193452884e+01 -5.5807366586110078e+01 0 0 0
3731 107 4 0.0000000000000000e+00 -9.5610792191202478e+01 -3.4207809485940722e+01 -6.0622168878392905e+01 0 0 0
3730 107 4 0.0000000000000000e+00 -9.2897307494912553e+01 -2.4545696941501429e+01 -6.2530569145169011e+01 0 0 0
2933 84 2 0.0000000000000000e+00 -1.2036519067356896e+02 -1.7147882280789421e+01 -6.4616144450352408e+01 0 0 0
2934 84 2 0.0000000000000000e+00 -1.1952077871330803e+02 -1.7503123959590173e+01 -5.4606732530172131e+01 0 0 0
2921 84 2 0.0000000000000000e+00 -1.0176263145336499e+02 -1.4581955718328198e+01 -5.2590992293830425e+01 0 0 0
3729 107 4 0.0000000000000000e+00 -8.8316589892837882e+01 -1.6544184022816200e+01 -6.4776169715117916e+01 0 0 0
5895 169 4 0.0000000000000000e+00 -9.0349240032008723e+01 -1.0493722490430622e+01 -5.7826948851686318e+01 0 0 0
5894 169 4 0.0000000000000000e+00 -8.9982306688243014e+01 -1.9909369394549625e+01 -5.4548946695317163e+01 0 0 0
6284 180 4 0.0000000000000000e+00 -1.4667706447211629e+02 3.0994633000015250e+00 -5.9790732243592153e+01 0 0 0
6285 180 4 0.0000000000000000e+00 -1.3821902193799576e+02 -2.8198809619529852e+00 -5.7441594025943175e+01 0 0 0
6286 180 4 0.0000000000000000e+00 -1.2894401124029392e+02 -5.8525063361654395e+00 -5.8708247164444082e+01 0 0 0
1730 50 2 0.0000000000000000e+00 -1.2120645325472283e+02 3.5784592160647954e+00 -5.8118031594263798e+01 0 0 0
4768 137 4 0.0000000000000000e+00 -1.1218122038252856e+02 3.8271236420797647e+00 -5.1655791602740777e+01 0 0 0
2922 84 2 0.0000000000000000e+00 -1.0047417039815213e+02 -9.2897341428160125e+00 -6.1341763275643281e+01 0 0 0