LAMMPS data file via write_data, version 5 Jun 2019, timestep = 350000000

7000 atoms
4 atom types
7291 bonds
3 bond types
6600 angles
2 angle types

-5.0000000000000000e+02 5.0000000000000000e+02 xlo xhi
-5.0000000000000000e+02 5.0000000000000000e+02 ylo yhi
-5.0000000000000000e+02 5.0000000000000000e+02 zlo zhi

Masses

1 1000
2 1000
3 1000
4 1000

Pair Coeffs # lj/cut

1 0.296 10
2 0.296 10
3 0.296 10
4 0.296 10

Angle Coeffs # cosine

1 2
2 2

Atoms # full

2554 73 2 0.0000000000000000e+00 -6.3740892475095137e+01 -4.6609712833958625e+01 -1.3248135232876186e+02 0 0 0
2553 73 2 0.0000000000000000e+00 -5.4088024652699801e+01 -4.8104768374411712e+01 -1.3431281603977507e+02 0 0 0
2552 73 1 0.0000000000000000e+00 -4.3897972394892335e+01 -4.7382257267086722e+01 -1.3247597818827856e+02 0 0 0
2521 73 2 0.0000000000000000e+00 -8.6573637559413953e+01 -4.3488299763127280e+01 -1.3015225175543227e+02 0 0 0
2555 73 2 0.0000000000000000e+00 -6.8641850095540008e+01 -4.1745598459102226e+01 -1.4035898441711737e+02 0 0 0
2522 73 2 0.0000000000000000e+00 -9.4352048954855150e+01 -4.6002129438667247e+01 -1.2346111589399594e+02 0 0 0
2523 73 2 0.0000000000000000e+00 -1.0213217231657440e+02 -4.6915472206059576e+01 -1.1679666281134539e+02 0 0 0
6495 186 4 0.0000000000000000e+00 -8.1553326367068266e+01 -5.4018305707033598e+01 -1.1921367763020228e+02 0 0 0
6496 186 4 0.0000000000000000e+00 -7.2637957968414810e+01 -5.5000784692790070e+01 -1.2277245112183991e+02 0 0 0
6497 186 4 0.0000000000000000e+00 -6.3402030389943128e+01 -5.6951642173675943e+01 -1.2402802272860070e+02 0 0 0
6498 186 4 0.0000000000000000e+00 -5.3860133566568415e+01 -5.4725371069775278e+01 -1.2535643341232202e+02 0 0 0
2550 73 2 0.0000000000000000e+00 -5.5904598801618860e+01 -4.6474240297677817e+01 -1.1874000168184419e+02 0 0 0
2551 73 2 0.0000000000000000e+00 -4.8986184115971895e+01 -4.3573834497318273e+01 -1.2536834977630154e+02 0 0 0
6499 186 4 0.0000000000000000e+00 -4.4596282526698154e+01 -5.6486509981833699e+01 -1.2806883906633180e+02 0 0 0
6500 186 3 0.0000000000000000e+00 -3.6171127431122933e+01 -5.3234581120544739e+01 -1.2664544513855628e+02 0 0 0
6501 186 4 0.0000000000000000e+00 -3.3672569830866088e+01 -4.4242044545088312e+01 -1.2765592974919507e+02 0 0 0
2234 64 2 0.0000000000000000e+00 -2.9681681644261236e+01 -5.1843204635453944e+01 -1.1617715231833172e+02 0 0 0
2233 64 2 0.0000000000000000e+00 -2.0740182519639397e+01 -5.6042268328246898e+01 -1.1759347764110471e+02 0 0 0
2066 60 2 0.0000000000000000e+00 -9.0238507241899654e+01 -3.2530569700817871e+01 -1.2785292828880615e+02 0 0 0
2067 60 2 0.0000000000000000e+00 -8.6808238378640922e+01 -3.4885655895508975e+01 -1.1841978006820554e+02 0 0 0
4742 136 4 0.0000000000000000e+00 -3.6053262806238862e+01 -3.1615940084737939e+01 -1.2354699766200314e+02 0 0 0
4743 136 3 0.0000000000000000e+00 -4.3117400065801760e+01 -3.0762386733643993e+01 -1.1647637889614785e+02 0 0 0
6502 186 4 0.0000000000000000e+00 -2.7891078475555585e+01 -3.9781559276405517e+01 -1.2158895292151401e+02 0 0 0
4741 136 4 0.0000000000000000e+00 -3.2730415592253401e+01 -2.3449025599268193e+01 -1.2812662074932811e+02 0 0 0
4740 136 4 0.0000000000000000e+00 -2.3849538899560386e+01 -1.8669571504726967e+01 -1.2521272907876465e+02 0 0 0
2546 73 2 0.0000000000000000e+00 -8.2764117518496519e+01 -6.2165850423929797e+01 -1.1272006240373246e+02 0 0 0
2545 73 1 0.0000000000000000e+00 -8.0309394884452885e+01 -6.7151243341645042e+01 -1.0447916512650526e+02 0 0 0
2524 73 1 0.0000000000000000e+00 -9.8081480405496279e+01 -4.7161943951447775e+01 -1.0758893763333303e+02 0 0 0
2547 73 2 0.0000000000000000e+00 -7.7054288285847790e+01 -5.5200360151723693e+01 -1.0826346015847913e+02 0 0 0
6494 186 4 0.0000000000000000e+00 -8.4573015902118911e+01 -4.7134928465097182e+01 -1.1261016548855358e+02 0 0 0
6493 186 3 0.0000000000000000e+00 -8.7923550933739335e+01 -4.3826596983289484e+01 -1.0421207135643382e+02 0 0 0
2548 73 2 0.0000000000000000e+00 -7.1157820038753229e+01 -4.6973640609256790e+01 -1.0811130414399297e+02 0 0 0
4746 136 4 0.0000000000000000e+00 -6.0440724643247918e+01 -4.6088949996141210e+01 -1.0474212804965084e+02 0 0 0
2235 64 2 0.0000000000000000e+00 -3.8571772488992366e+01 -4.7437360708667420e+01 -1.1440897940393396e+02 0 0 0
1371 40 2 0.0000000000000000e+00 -3.8935184248813734e+01 -5.2178483014697981e+01 -1.0399566502308058e+02 0 0 0
1372 40 2 0.0000000000000000e+00 -3.3771278159710924e+01 -4.3844351977996922e+01 -1.0334754618106614e+02 0 0 0
1373 40 2 0.0000000000000000e+00 -2.6119450634051571e+01 -4.5523160809091017e+01 -1.0927058930134936e+02 0 0 0
5913 169 4 0.0000000000000000e+00 -9.8481309101188032e+01 -3.7078109326635840e+01 -1.0296933510933464e+02 0 0 0
5912 169 3 0.0000000000000000e+00 -8.8743238795783000e+01 -3.2578214332512296e+01 -1.0391559745368431e+02 0 0 0
2068 60 2 0.0000000000000000e+00 -7.9485409598754117e+01 -3.8411524414646124e+01 -1.1235394456350981e+02 0 0 0
2069 60 1 0.0000000000000000e+00 -7.7940872780375315e+01 -3.0975928870601159e+01 -1.0557027198299085e+02 0 0 0
2549 73 2 0.0000000000000000e+00 -6.5539578255568998e+01 -4.3519605258889790e+01 -1.1581649068551437e+02 0 0 0
4745 136 4 0.0000000000000000e+00 -5.6948015109559257e+01 -3.7009434809678638e+01 -1.0756956192617284e+02 0 0 0
4744 136 4 0.0000000000000000e+00 -4.7826509179248411e+01 -3.2058547161128743e+01 -1.0812960912019000e+02 0 0 0
2236 64 2 0.0000000000000000e+00 -3.6510410863125777e+01 -3.7285628684881836e+01 -1.1492427273161029e+02 0 0 0
6503 186 4 0.0000000000000000e+00 -2.4218555781676205e+01 -3.5253134210773418e+01 -1.1306272243844818e+02 0 0 0
5911 169 4 0.0000000000000000e+00 -8.9450935023043613e+01 -2.2780036532809397e+01 -1.0503006442544734e+02 0 0 0
6336 182 4 0.0000000000000000e+00 -6.7779974372531029e+01 -2.5211088153271078e+01 -1.1515913310328511e+02 0 0 0
6337 182 4 0.0000000000000000e+00 -5.9156579499344573e+01 -2.4252484258856157e+01 -1.1059751363392941e+02 0 0 0
1628 47 1 0.0000000000000000e+00 -4.0349283997946706e+01 -2.4466860334207041e+01 -1.0734699841511333e+02 0 0 0
5541 159 3 0.0000000000000000e+00 -4.6229947599109607e+01 -1.5987408119850908e+01 -1.0324362085407797e+02 0 0 0
1627 47 2 0.0000000000000000e+00 -4.0777134810602682e+01 -1.8228745015440918e+01 -1.1457654057754351e+02 0 0 0
2237 64 1 0.0000000000000000e+00 -3.2784371775556878e+01 -2.8713779813015236e+01 -1.1318502529880224e+02 0 0 0
2238 64 2 0.0000000000000000e+00 -2.8826315586358980e+01 -1.9974713329819391e+01 -1.1287960816278738e+02 0 0 0
6253 179 4 0.0000000000000000e+00 -8.8581280546033767e+01 -7.4025241518718076e+01 -8.8552695812227441e+01 0 0 0
4200 120 4 0.0000000000000000e+00 -6.5199496371459645e+01 -8.1854787825714141e+01 -9.5128337625831307e+01 0 0 0
5433 156 4 0.0000000000000000e+00 -2.7980215818305581e+01 -8.1913820067488729e+01 -9.2874406151516226e+01 0 0 0
3745 107 4 0.0000000000000000e+00 -1.0238144103783885e+02 -6.4544604512855898e+01 -8.9718555654137376e+01 0 0 0
6255 179 3 0.0000000000000000e+00 -8.4405905317409278e+01 -5.8559832493538586e+01 -9.9055143719799489e+01 0 0 0
6254 179 4 0.0000000000000000e+00 -8.7977015439760095e+01 -6.6762427066727270e+01 -9.4987593947160320e+01 0 0 0
2544 73 2 0.0000000000000000e+00 -7.7225968189584492e+01 -7.1189376121294188e+01 -9.5583728162606178e+01 0 0 0
6334 181 4 0.0000000000000000e+00 -2.9203033493546773e+01 -6.2545154536336931e+01 -8.8898170332872681e+01 0 0 0
2526 73 2 0.0000000000000000e+00 -1.0267862540974025e+02 -5.1597027654252500e+01 -8.9921809218284864e+01 0 0 0
2525 73 2 0.0000000000000000e+00 -9.7919974290503873e+01 -4.7891555754840610e+01 -9.7711130011706459e+01 0 0 0
6256 179 4 0.0000000000000000e+00 -7.9415620521298834e+01 -4.9404128137875105e+01 -1.0137847935936632e+02 0 0 0
4748 136 4 0.0000000000000000e+00 -7.3970231080834864e+01 -5.4758701794616854e+01 -9.4182036525649877e+01 0 0 0
6257 179 4 0.0000000000000000e+00 -7.3395677933291324e+01 -4.3857298606803973e+01 -9.6092260219755929e+01 0 0 0
4747 136 4 0.0000000000000000e+00 -6.6771327196213846e+01 -5.3395513490781944e+01 -1.0047954002605769e+02 0 0 0
6511 187 4 0.0000000000000000e+00 -4.9025474619036132e+01 -4.6958358130867346e+01 -1.0121555055975655e+02 0 0 0
1370 40 2 0.0000000000000000e+00 -4.2200170382066815e+01 -5.4776047541746024e+01 -9.4776923142116217e+01 0 0 0
2213 64 2 0.0000000000000000e+00 -3.7099849527563777e+01 -4.7053838554202997e+01 -8.8917148765974801e+01 0 0 0
6333 181 4 0.0000000000000000e+00 -2.4293397926452666e+01 -5.5252950097268211e+01 -9.3140762229684370e+01 0 0 0
6332 181 3 0.0000000000000000e+00 -2.1884758358939948e+01 -4.5891538395880524e+01 -9.4882380384789101e+01 0 0 0
5915 169 4 0.0000000000000000e+00 -1.0959990353447583e+02 -4.3268991061868228e+01 -9.0531869657977182e+01 0 0 0
5914 169 4 0.0000000000000000e+00 -1.0656702772679333e+02 -4.2128447295320861e+01 -9.9943146264125858e+01 0 0 0
6491 186 4 0.0000000000000000e+00 -9.4518246282005336e+01 -3.3038367831841924e+01 -9.4807220985465918e+01 0 0 0
6492 186 4 0.0000000000000000e+00 -8.7819535457976542e+01 -4.0088827640134092e+01 -9.4491451593235112e+01 0 0 0
2070 60 2 0.0000000000000000e+00 -7.8044875580754749e+01 -3.2939428272492151e+01 -9.5802271224110868e+01 0 0 0
2071 60 2 0.0000000000000000e+00 -6.9324045659437871e+01 -3.5499015080737472e+01 -9.0835567003153940e+01 0 0 0
6512 187 4 0.0000000000000000e+00 -4.6953021328391330e+01 -3.9694215468380385e+01 -9.4875053597086023e+01 0 0 0
1629 47 2 0.0000000000000000e+00 -3.9597343726562798e+01 -3.1588149818334990e+01 -9.9772569843518994e+01 0 0 0
1630 47 2 0.0000000000000000e+00 -3.1547307261302322e+01 -3.5887296217347249e+01 -9.4951523458237773e+01 0 0 0
1631 47 2 0.0000000000000000e+00 -2.1632334054792924e+01 -3.3978325515590257e+01 -9.5770763110276860e+01 0 0 0
6490 186 4 0.0000000000000000e+00 -9.9788473574462188e+01 -2.6021612777481586e+01 -9.0952581920573564e+01 0 0 0
1795 52 2 0.0000000000000000e+00 -6.9455904941959361e+01 -1.8271298177489605e+01 -1.0036893936570591e+02 0 0 0
6338 182 4 0.0000000000000000e+00 -5.5508975400397681e+01 -2.7109383751799456e+01 -1.0105316136679252e+02 0 0 0
6339 182 3 0.0000000000000000e+00 -5.9082902247804491e+01 -2.3197884743777024e+01 -9.3057666568455318e+01 0 0 0
5542 159 4 0.0000000000000000e+00 -4.7865067687265153e+01 -1.7640936178641464e+01 -9.3452452523575147e+01 0 0 0
1796 52 1 0.0000000000000000e+00 -5.9424307614963396e+01 -1.7011987797008274e+01 -1.0187357208093879e+02 0 0 0
6251 179 4 0.0000000000000000e+00 -9.6116921294814375e+01 -8.7488894657458033e+01 -8.1545381811062057e+01 0 0 0
6252 179 4 0.0000000000000000e+00 -9.4822473172662001e+01 -8.0702075316704025e+01 -8.8285845123699858e+01 0 0 0
2543 73 2 0.0000000000000000e+00 -7.0646558917522526e+01 -7.2794808416504694e+01 -8.8064557670328810e+01 0 0 0
2542 73 2 0.0000000000000000e+00 -6.9903537930946925e+01 -7.9515469011911833e+01 -8.1424842067791275e+01 0 0 0
4199 120 4 0.0000000000000000e+00 -5.9551661024709219e+01 -8.1785532524766737e+01 -8.7095275765613934e+01 0 0 0
4198 120 4 0.0000000000000000e+00 -5.3987950229200898e+01 -7.3705252890189826e+01 -8.3452301937960087e+01 0 0 0
5431 156 4 0.0000000000000000e+00 -3.8278484529127610e+01 -7.5557376719749769e+01 -7.9848923970832402e+01 0 0 0
5432 156 4 0.0000000000000000e+00 -3.0924720177799461e+01 -7.5148229572612038e+01 -8.6394034197799670e+01 0 0 0
2529 73 2 0.0000000000000000e+00 -1.1365025401528311e+02 -6.3416993462289369e+01 -7.5167366280788016e+01 0 0 0
3744 107 4 0.0000000000000000e+00 -9.5716664507375057e+01 -6.5891623583375463e+01 -8.2895086384730277e+01 0 0 0
4749 136 4 0.0000000000000000e+00 -7.9048737269227161e+01 -5.8028697166984415e+01 -8.6454907555250301e+01 0 0 0
4750 136 3 0.0000000000000000e+00 -7.3171152077449619e+01 -5.9113783507527515e+01 -7.7938383620418946e+01 0 0 0
4197 120 3 0.0000000000000000e+00 -4.8481564533837307e+01 -6.5710852059297650e+01 -8.2833040753227976e+01 0 0 0
2630 76 2 0.0000000000000000e+00 -5.9149915379772104e+01 -6.4862712853117742e+01 -7.5620100207341977e+01 0 0 0
6335 181 4 0.0000000000000000e+00 -3.8092554427314212e+01 -6.4859146698648360e+01 -8.4746523571091146e+01 0 0 0
4841 139 3 0.0000000000000000e+00 -2.8622379669461846e+01 -6.2107140931061657e+01 -7.5776391092526410e+01 0 0 0
2528 73 2 0.0000000000000000e+00 -1.1844585124205550e+02 -5.6750222224457659e+01 -8.0387256684925845e+01 0 0 0
2527 73 2 0.0000000000000000e+00 -1.1003981348225159e+02 -5.6621579936512838e+01 -8.5901921193060105e+01 0 0 0
2929 84 2 0.0000000000000000e+00 -1.0581096799204545e+02 -4.6356927049081428e+01 -7.7142083863270344e+01 0 0 0
6265 179 4 0.0000000000000000e+00 -9.1294116628310192e+01 -5.4227358471999530e+01 -8.2354396067892253e+01 0 0 0
1366 40 2 0.0000000000000000e+00 -6.9181100231779681e+01 -4.6623129496856514e+01 -7.6958068830708712e+01 0 0 0
1367 40 2 0.0000000000000000e+00 -6.2808594937846749e+01 -5.3419968475307769e+01 -8.0998993674341108e+01 0 0 0
1368 40 2 0.0000000000000000e+00 -5.3408477039351119e+01 -5.6614418313954168e+01 -7.8645244564192438e+01 0 0 0
1369 40 1 0.0000000000000000e+00 -4.6905453211938209e+01 -5.5145792961073468e+01 -8.6174390924393578e+01 0 0 0
2214 64 2 0.0000000000000000e+00 -3.2483365684050163e+01 -5.3744741483397320e+01 -8.2299495235150900e+01 0 0 0
2215 64 2 0.0000000000000000e+00 -2.3076571124188437e+01 -5.6423917991135021e+01 -8.2565797668905560e+01 0 0 0
6331 181 4 0.0000000000000000e+00 -2.0997028161908588e+01 -4.4081727220623883e+01 -8.4925171710832771e+01 0 0 0
1379 40 2 0.0000000000000000e+00 -2.6275020484038855e+01 -4.4891392003921780e+01 -7.6217536234966104e+01 0 0 0
2928 84 2 0.0000000000000000e+00 -9.9691570394178115e+01 -4.1202719203664536e+01 -8.2909694632342635e+01 0 0 0
2927 84 2 0.0000000000000000e+00 -9.3274455340277328e+01 -3.3780166812476040e+01 -8.4501370241433378e+01 0 0 0
6258 179 4 0.0000000000000000e+00 -7.5998253195256993e+01 -4.0544482081470761e+01 -8.6668849309745781e+01 0 0 0
6259 179 4 0.0000000000000000e+00 -8.0119674857674568e+01 -3.2747815288234115e+01 -8.2892522660133679e+01 0 0 0
6260 179 4 0.0000000000000000e+00 -8.7666212003089612e+01 -3.2593455891173924e+01 -7.6611928341153373e+01 0 0 0
2072 60 2 0.0000000000000000e+00 -6.4665802827093572e+01 -3.6926512328998712e+01 -8.2864313979615730e+01 0 0 0
2084 60 2 0.0000000000000000e+00 -5.7316083077366571e+01 -4.0718189643124681e+01 -7.5766479401443632e+01 0 0 0
6513 187 4 0.0000000000000000e+00 -4.5356794762137852e+01 -3.3221728998285478e+01 -8.7324224807513261e+01 0 0 0
2212 64 2 0.0000000000000000e+00 -3.1326684526065478e+01 -3.9527297825501975e+01 -8.5057230280481420e+01 0 0 0
2211 64 2 0.0000000000000000e+00 -2.9105755365121087e+01 -2.9943957778921188e+01 -8.5174581549394958e+01 0 0 0
6488 186 4 0.0000000000000000e+00 -1.0973863631824840e+02 -1.8268074811631955e+01 -7.5729154116537501e+01 0 0 0
6489 186 4 0.0000000000000000e+00 -1.0651872232289423e+02 -2.3606007749342371e+01 -8.3765327256558962e+01 0 0 0
2925 84 2 0.0000000000000000e+00 -9.1709003974700096e+01 -2.1036619868301450e+01 -7.6738321363276327e+01 0 0 0
2926 84 2 0.0000000000000000e+00 -8.7693522577463000e+01 -2.5405770900872717e+01 -8.5070030623552029e+01 0 0 0
6516 187 4 0.0000000000000000e+00 -6.6276651492095112e+01 -2.5166546879660928e+01 -8.0285289132902022e+01 0 0 0
6517 187 4 0.0000000000000000e+00 -7.4040590855940536e+01 -1.8955943941278679e+01 -8.1775135295775087e+01 0 0 0
6515 187 4 0.0000000000000000e+00 -5.5998430371099943e+01 -2.5930620585312564e+01 -7.9626033937426300e+01 0 0 0
6514 187 3 0.0000000000000000e+00 -4.6481243101157894e+01 -2.7273530615288227e+01 -7.9821264195664838e+01 0 0 0
2210 64 2 0.0000000000000000e+00 -2.9949045311956574e+01 -2.0526188196431409e+01 -8.7557046548407996e+01 0 0 0
6250 179 4 0.0000000000000000e+00 -9.2326540225336132e+01 -9.0039037012149279e+01 -7.3070932569893046e+01 0 0 0
6249 179 4 0.0000000000000000e+00 -8.8921662760847653e+01 -9.3076695943996441e+01 -6.3824784207705449e+01 0 0 0
5429 156 3 0.0000000000000000e+00 -4.0733156050291015e+01 -8.5309781512884030e+01 -6.4274177577013234e+01 0 0 0
4844 139 4 0.0000000000000000e+00 -3.0900032691882156e+01 -8.9900066669035539e+01 -6.7229760808773037e+01 0 0 0
2627 76 2 0.0000000000000000e+00 -8.5783127499437200e+01 -7.2870330375816380e+01 -6.4763183699344083e+01 0 0 0
2540 73 2 0.0000000000000000e+00 -7.4608549634970146e+01 -8.4395266258458577e+01 -6.2819739491350958e+01 0 0 0
2541 73 2 0.0000000000000000e+00 -7.2171839176606980e+01 -8.4873799930050978e+01 -7.2807624546655390e+01 0 0 0
2088 60 2 0.0000000000000000e+00 -5.5235918653039263e+01 -7.5187665273922462e+01 -6.3770874611150468e+01 0 0 0
5430 156 4 0.0000000000000000e+00 -4.3324184216272535e+01 -8.0678076187728323e+01 -7.2795253078752566e+01 0 0 0
4842 139 4 0.0000000000000000e+00 -3.0245961262992274e+01 -7.1700475996933037e+01 -7.2587047664319471e+01 0 0 0
4843 139 4 0.0000000000000000e+00 -3.3378271326396948e+01 -8.1107598282016568e+01 -7.1535639539229734e+01 0 0 0
2530 73 2 0.0000000000000000e+00 -1.0512787826086269e+02 -6.2188733564430123e+01 -7.0284482439379687e+01 0 0 0
3743 107 4 0.0000000000000000e+00 -9.0894696915574599e+01 -6.7888242639670437e+01 -7.4117683474811770e+01 0 0 0
2531 73 1 0.0000000000000000e+00 -9.6831027922941601e+01 -5.8474135551516120e+01 -6.6226060207181675e+01 0 0 0
3742 107 3 0.0000000000000000e+00 -8.6268213669514537e+01 -5.9736765396200056e+01 -7.0093030691119935e+01 0 0 0
2628 76 2 0.0000000000000000e+00 -7.7081502627344534e+01 -7.0586689761424694e+01 -6.8769502698965169e+01 0 0 0
2629 76 1 0.0000000000000000e+00 -6.8110761254173553e+01 -6.8020006845319287e+01 -7.3156170415002748e+01 0 0 0
2631 76 2 0.0000000000000000e+00 -5.0954897189218279e+01 -6.9891859866926865e+01 -7.3992142347696443e+01 0 0 0
2087 60 2 0.0000000000000000e+00 -5.7961782514375749e+01 -6.6160766950405346e+01 -6.1257282972679590e+01 0 0 0
2086 60 2 0.0000000000000000e+00 -5.8648370955226824e+01 -5.7799955700017229e+01 -6.6515634806466750e+01 0 0 0
4196 120 4 0.0000000000000000e+00 -4.4960096077582428e+01 -6.1025653051541198e+01 -7.4472521547974864e+01 0 0 0
2632 76 2 0.0000000000000000e+00 -4.2044196640909071e+01 -7.0689602644467001e+01 -6.9513233030736416e+01 0 0 0
4195 120 4 0.0000000000000000e+00 -3.7991835330827513e+01 -5.7573981167315566e+01 -6.8156443726808291e+01 0 0 0
2633 76 2 0.0000000000000000e+00 -3.6288819328914620e+01 -6.9446048722380866e+01 -6.1709746664604353e+01 0 0 0
6263 179 4 0.0000000000000000e+00 -1.0517558838923128e+02 -5.0587490828628113e+01 -6.8644714839052511e+01 0 0 0
6264 179 4 0.0000000000000000e+00 -9.7131242233088798e+01 -5.2563751704958648e+01 -7.4588931742112123e+01 0 0 0
3741 107 4 0.0000000000000000e+00 -7.9787992434524881e+01 -5.2636083907338602e+01 -7.3459228484551076e+01 0 0 0
3740 107 4 0.0000000000000000e+00 -8.4182747332339346e+01 -4.5161720606169879e+01 -6.8509803710254900e+01 0 0 0
4751 136 4 0.0000000000000000e+00 -7.0333284545261535e+01 -5.6899583156309959e+01 -6.8838407819339096e+01 0 0 0
4752 136 4 0.0000000000000000e+00 -7.1949826004544448e+01 -4.7831254712949423e+01 -6.3965034553802916e+01 0 0 0
2085 60 2 0.0000000000000000e+00 -6.0054745924623816e+01 -4.8905535752973535e+01 -7.0920834746548721e+01 0 0 0
4192 120 4 0.0000000000000000e+00 -5.1542948584867759e+01 -5.1875881532406950e+01 -6.3170143797179833e+01 0 0 0
4193 120 4 0.0000000000000000e+00 -4.4077348835377350e+01 -4.7302739000405971e+01 -6.8306836643661157e+01 0 0 0
4194 120 4 0.0000000000000000e+00 -3.4237483736700511e+01 -4.8395728139121424e+01 -6.7867698028478955e+01 0 0 0
4839 139 4 0.0000000000000000e+00 -2.4621675366317611e+01 -5.2420773201397132e+01 -6.1051715434504828e+01 0 0 0
4840 139 4 0.0000000000000000e+00 -2.6279530424926630e+01 -5.3916129975700699e+01 -7.1446497916100299e+01 0 0 0
5529 158 4 0.0000000000000000e+00 -1.4585504602408133e+02 -4.1960458656619267e+01 -7.2560525901288443e+01 0 0 0
5530 158 4 0.0000000000000000e+00 -1.4564982017209718e+02 -3.2414239483904908e+01 -6.9946193973342815e+01 0 0 0
5528 158 4 0.0000000000000000e+00 -1.3709678517190463e+02 -3.6497038495718861e+01 -7.2549544347112743e+01 0 0 0
5527 158 3 0.0000000000000000e+00 -1.3790239772419685e+02 -3.6604794573876624e+01 -6.2679566455308134e+01 0 0 0
2931 84 2 0.0000000000000000e+00 -1.2202688157896131e+02 -4.0209525459188292e+01 -7.0631975212603848e+01 0 0 0
2932 84 2 0.0000000000000000e+00 -1.2258525260806900e+02 -3.4171610739722631e+01 -6.2511233365364468e+01 0 0 0
2930 84 1 0.0000000000000000e+00 -1.1329592283653379e+02 -4.0677952594316466e+01 -7.4632895214452617e+01 0 0 0
6262 179 3 0.0000000000000000e+00 -1.0407981013306848e+02 -4.0638362468985250e+01 -6.8383330521896141e+01 0 0 0
3739 107 4 0.0000000000000000e+00 -9.1717208572829080e+01 -4.1484360530310475e+01 -6.2661841063705069e+01 0 0 0
6261 179 4 0.0000000000000000e+00 -9.6176739916214387e+01 -3.7701870089779362e+01 -7.3778090256767840e+01 0 0 0
4755 136 4 0.0000000000000000e+00 -9.4201418769347882e+01 -3.0280404141176618e+01 -6.6569668457783649e+01 0 0 0
4754 136 4 0.0000000000000000e+00 -8.4737919966622300e+01 -3.2668090788830163e+01 -6.3895257339162086e+01 0 0 0
4753 136 4 0.0000000000000000e+00 -7.6950150593016460e+01 -3.8821583132530073e+01 -6.3786544195967409e+01 0 0 0
2074 60 2 0.0000000000000000e+00 -7.3911567480104097e+01 -3.0792169665740253e+01 -7.2554568615106902e+01 0 0 0
2073 60 2 0.0000000000000000e+00 -6.6739826177878498e+01 -3.7191129561236245e+01 -7.3349189773874031e+01 0 0 0
2083 60 1 0.0000000000000000e+00 -5.3368707185751603e+01 -3.2410295765736429e+01 -7.2613765189790826e+01 0 0 0
1383 40 1 0.0000000000000000e+00 -6.0689047490880156e+01 -4.0385462959070303e+01 -6.5055623260559301e+01 0 0 0
1382 40 2 0.0000000000000000e+00 -5.0447053362949063e+01 -3.9854179020207809e+01 -6.5473812391745426e+01 0 0 0
1380 40 2 0.0000000000000000e+00 -3.5436477324647065e+01 -4.0119958496628385e+01 -7.4302797555105940e+01 0 0 0
1381 40 2 0.0000000000000000e+00 -4.1959458608403914e+01 -3.5238958482444517e+01 -6.7908138285500954e+01 0 0 0
6544 187 4 0.0000000000000000e+00 -2.6035485729178895e+01 -3.0899724268402398e+01 -6.3792601526541169e+01 0 0 0
2201 63 2 0.0000000000000000e+00 -1.4277200743692492e+02 -2.4253502469489874e+01 -6.2418081175453558e+01 0 0 0
4758 136 4 0.0000000000000000e+00 -1.1738377633809795e+02 -1.8858452364460991e+01 -6.3494499543308756e+01 0 0 0
4756 136 4 0.0000000000000000e+00 -1.0318890326552442e+02 -2.9075912934832676e+01 -7.0440027098717209e+01 0 0 0
4757 136 3 0.0000000000000000e+00 -1.1273951144618576e+02 -2.6270576310188016e+01 -6.8275418942006780e+01 0 0 0
2924 84 2 0.0000000000000000e+00 -9.1924702443057711e+01 -1.9333274654493149e+01 -6.6811603340507844e+01 0 0 0
2075 60 2 0.0000000000000000e+00 -7.3178905422577330e+01 -2.5390942673915916e+01 -6.4195779177722613e+01 0 0 0
5546 159 4 0.0000000000000000e+00 -6.6081275395238109e+01 -1.9258819481804789e+01 -7.1713321566925146e+01 0 0 0
5547 159 4 0.0000000000000000e+00 -6.0190212624362964e+01 -2.5387773792171771e+01 -6.6163298227578522e+01 0 0 0
2082 60 2 0.0000000000000000e+00 -4.9800801337289649e+01 -2.5649488379535562e+01 -6.5481987445547233e+01 0 0 0
5426 156 4 0.0000000000000000e+00 -4.8348884923769859e+01 -1.1066347377787626e+02 -5.1443299631202514e+01 0 0 0
5427 156 4 0.0000000000000000e+00 -4.6206678947089692e+01 -1.0243025696910733e+02 -5.6858883935203536e+01 0 0 0
2093 60 2 0.0000000000000000e+00 -2.2797551662513467e+01 -1.0249555593866887e+02 -4.8961609941381077e+01 0 0 0
2538 73 1 0.0000000000000000e+00 -9.2295314381369295e+01 -8.6337780560521807e+01 -5.3565467908743010e+01 0 0 0
6248 179 3 0.0000000000000000e+00 -9.1383639528618872e+01 -9.7652126966306938e+01 -5.5004708755022001e+01 0 0 0
5881 169 4 0.0000000000000000e+00 -7.9504498185912610e+01 -9.3409550469540946e+01 -5.3290954283763007e+01 0 0 0
2807 81 2 0.0000000000000000e+00 -7.1497418273735278e+01 -8.5318496339699109e+01 -5.1893334483114778e+01 0 0 0
2806 81 2 0.0000000000000000e+00 -6.2727685691761707e+01 -8.9372249699414539e+01 -4.8510717390631129e+01 0 0 0
5428 156 4 0.0000000000000000e+00 -4.1789722905054603e+01 -9.4295387464317955e+01 -5.9646579716434744e+01 0 0 0
4845 139 4 0.0000000000000000e+00 -2.4782732122829174e+01 -9.0747984794045422e+01 -5.9928984628998570e+01 0 0 0
2536 73 2 0.0000000000000000e+00 -1.0495051149041254e+02 -7.2502320921857986e+01 -5.2380091998528385e+01 0 0 0
2626 76 2 0.0000000000000000e+00 -9.2885862964152082e+01 -7.8174798383018782e+01 -6.0924405878309045e+01 0 0 0
2537 73 2 0.0000000000000000e+00 -1.0026305907087712e+02 -8.0836532035564645e+01 -5.4100003872129058e+01 0 0 0
2539 73 2 0.0000000000000000e+00 -8.2849428998076135e+01 -8.3232939718823644e+01 -5.6878838028945594e+01 0 0 0
5884 169 3 0.0000000000000000e+00 -8.6327819856054759e+01 -7.2769211095757811e+01 -5.1446392265165528e+01 0 0 0
2089 60 2 0.0000000000000000e+00 -4.8351818047810049e+01 -8.0176557546725334e+01 -5.9042303578631575e+01 0 0 0
2090 60 1 0.0000000000000000e+00 -4.0492001087181208e+01 -8.3334421283301339e+01 -5.2902755939130188e+01 0 0 0
2634 76 2 0.0000000000000000e+00 -2.9153371733579494e+01 -7.2758114005173667e+01 -5.5092537853094790e+01 0 0 0
3991 115 4 0.0000000000000000e+00 -2.3872138182504539e+01 -8.1509805237256344e+01 -4.7361179207220260e+01 0 0 0
2635 76 2 0.0000000000000000e+00 -2.2191359981459154e+01 -7.1424107058185584e+01 -4.8260830093283744e+01 0 0 0
5888 169 4 0.0000000000000000e+00 -1.1505497730037361e+02 -5.8578576818055602e+01 -5.7237477617492161e+01 0 0 0
5887 169 4 0.0000000000000000e+00 -1.0570039531651766e+02 -6.2547844288445255e+01 -5.9424303161487416e+01 0 0 0
5886 169 4 0.0000000000000000e+00 -9.6903851788388721e+01 -6.7320999801534171e+01 -5.9271779670664962e+01 0 0 0
2532 73 2 0.0000000000000000e+00 -9.6862964490274905e+01 -5.8103695349561448e+01 -5.5598463562735397e+01 0 0 0
5885 169 4 0.0000000000000000e+00 -8.8426273525955594e+01 -6.4147045831148446e+01 -5.5341401515420046e+01 0 0 0
247 8 2 0.0000000000000000e+00 -6.5637333953761143e+01 -6.2680484879693211e+01 -5.6341506561580566e+01 0 0 0
246 8 2 0.0000000000000000e+00 -7.1049085943088599e+01 -6.4019501678594921e+01 -4.7830004761192285e+01 0 0 0
5554 159 4 0.0000000000000000e+00 -5.7636778222547100e+01 -7.0289456314176832e+01 -5.0272334264094553e+01 0 0 0
5553 159 4 0.0000000000000000e+00 -5.0591308927313676e+01 -6.5215952243216975e+01 -5.3033401021225870e+01 0 0 0
5552 159 4 0.0000000000000000e+00 -4.3308544160728680e+01 -6.0393211978784201e+01 -5.7970444692080427e+01 0 0 0
4837 139 4 0.0000000000000000e+00 -3.5657768339524004e+01 -6.2731468175151406e+01 -5.0318702703321414e+01 0 0 0
4838 139 4 0.0000000000000000e+00 -2.9413431611547640e+01 -6.0063610710215777e+01 -5.7637808122833853e+01 0 0 0
2204 63 2 0.0000000000000000e+00 -1.5268900426791080e+02 -4.9036737538799173e+01 -4.7829254720683842e+01 0 0 0
5889 169 4 0.0000000000000000e+00 -1.2246557986878541e+02 -5.2542835550285503e+01 -5.3690083325001801e+01 0 0 0
3737 107 4 0.0000000000000000e+00 -1.0785577870939410e+02 -4.4975603866709186e+01 -5.2554432401514482e+01 0 0 0
1391 40 2 0.0000000000000000e+00 -1.0236575106525169e+02 -5.1481702387609715e+01 -4.7533530703630653e+01 0 0 0
3738 107 4 0.0000000000000000e+00 -1.0002177847755650e+02 -4.6122644282124455e+01 -5.8579729873921536e+01 0 0 0
250 8 2 0.0000000000000000e+00 -8.7694363436159335e+01 -5.1497506388471862e+01 -5.0419683442010971e+01 0 0 0
249 8 1 0.0000000000000000e+00 -8.0741016457578965e+01 -4.9706105059661695e+01 -5.7790625974354008e+01 0 0 0
248 8 2 0.0000000000000000e+00 -7.3326510226799186e+01 -5.6805396910233952e+01 -5.7613412597082238e+01 0 0 0
4191 120 4 0.0000000000000000e+00 -5.4412516649620088e+01 -4.7541783307107636e+01 -5.4612053709264366e+01 0 0 0
5551 159 4 0.0000000000000000e+00 -3.7088271344409094e+01 -5.3897371940520564e+01 -5.8588516138323911e+01 0 0 0
5550 159 4 0.0000000000000000e+00 -4.4676825007634541e+01 -4.6958193695344164e+01 -5.7689124433091045e+01 0 0 0
4859 139 4 0.0000000000000000e+00 -2.6688828511230813e+01 -5.4854393813148626e+01 -4.9459736763641537e+01 0 0 0
2202 63 1 0.0000000000000000e+00 -1.4678759984144747e+02 -3.2460468891770482e+01 -5.7516989645863291e+01 0 0 0
2203 63 2 0.0000000000000000e+00 -1.5008193196648025e+02 -4.0666659298589657e+01 -5.2270283815079843e+01 0 0 0
5526 158 4 0.0000000000000000e+00 -1.3186425133697009e+02 -2.9720146282121604e+01 -5.7695792826586008e+01 0 0 0
2933 84 2 0.0000000000000000e+00 -1.1824748349958202e+02 -3.0588582771862036e+01 -5.4220238476719778e+01 0 0 0
932 27 2 0.0000000000000000e+00 -1.2563730722471711e+02 -3.1405894289180793e+01 -4.7786476464930502e+01 0 0 0
930 27 2 0.0000000000000000e+00 -1.0885749178942505e+02 -3.5063181228795109e+01 -4.7662349241359273e+01 0 0 0
929 27 2 0.0000000000000000e+00 -1.0630571208391369e+02 -3.2450200003408646e+01 -5.6462725395070017e+01 0 0 0
1389 40 2 0.0000000000000000e+00 -9.0670086932606338e+01 -3.7450433149742025e+01 -5.0321328954833902e+01 0 0 0
1388 40 2 0.0000000000000000e+00 -8.2180861183765543e+01 -3.2733496570578126e+01 -5.1240394391817780e+01 0 0 0
1384 40 2 0.0000000000000000e+00 -6.5293955139427339e+01 -4.1053784227724812e+01 -5.6240911725291539e+01 0 0 0
5549 159 4 0.0000000000000000e+00 -4.9321765775160479e+01 -3.8287571052900894e+01 -5.5381290293615990e+01 0 0 0
5548 159 3 0.0000000000000000e+00 -5.5489311716953431e+01 -3.2089070368251761e+01 -6.0331140093183699e+01 0 0 0
5496 158 4 0.0000000000000000e+00 -1.5990154014460671e+02 -2.1840298345979022e+01 -4.7568005880811356e+01 0 0 0
5497 158 4 0.0000000000000000e+00 -1.5309894774857048e+02 -1.8187309410911968e+01 -5.3201930733333739e+01 0 0 0
5498 158 4 0.0000000000000000e+00 -1.4536912942884820e+02 -2.4088722273571701e+01 -5.1385611342871641e+01 0 0 0
5525 158 4 0.0000000000000000e+00 -1.2618381708870622e+02 -2.2135394897799369e+01 -5.5966903002640166e+01 0 0 0
928 27 1 0.0000000000000000e+00 -1.0975042264592599e+02 -2.3616139196766493e+01 -5.8122791267339927e+01 0 0 0
2934 84 2 0.0000000000000000e+00 -1.1272547873833264e+02 -2.4495767505869473e+01 -4.8302569631787421e+01 0 0 0