LAMMPS data file via write_data, version 5 Jun 2019, timestep = 340000000

7000 atoms
4 atom types
7291 bonds
3 bond types
6600 angles
2 angle types

-5.0000000000000000e+02 5.0000000000000000e+02 xlo xhi
-5.0000000000000000e+02 5.0000000000000000e+02 ylo yhi
-5.0000000000000000e+02 5.0000000000000000e+02 zlo zhi

Masses

1 1000
2 1000
3 1000
4 1000

Pair Coeffs # lj/cut

1 0.296 10
2 0.296 10
3 0.296 10
4 0.296 10

Angle Coeffs # cosine

1 2
2 2

Atoms # full

3018 87 2 0.0000000000000000e+00 -2.7942540910681174e+01 3.2871646243819970e+00 -1.5212076000555831e+02 0 0 0
6336 182 4 0.0000000000000000e+00 -1.0184475062294696e+02 -3.3423241897522331e+01 -1.4089192948428470e+02 0 0 0
6337 182 4 0.0000000000000000e+00 -9.4537660177929695e+01 -2.7501278352546734e+01 -1.3740570613031559e+02 0 0 0
1793 52 2 0.0000000000000000e+00 -6.3360468976504180e+01 -2.3422863863578517e+01 -1.3927878660944600e+02 0 0 0
6338 182 4 0.0000000000000000e+00 -9.3448281524785727e+01 -1.7717002413027160e+01 -1.3731879134907408e+02 0 0 0
6339 182 3 0.0000000000000000e+00 -8.6261945821783499e+01 -1.1584315084118973e+01 -1.3766205230118055e+02 0 0 0
1794 52 2 0.0000000000000000e+00 -6.8188452113642569e+01 -1.6351008350142187e+01 -1.4444432826785297e+02 0 0 0
1795 52 2 0.0000000000000000e+00 -7.6836260738572363e+01 -1.4325189920508866e+01 -1.3948123874056424e+02 0 0 0
1626 47 2 0.0000000000000000e+00 -2.9330238220043427e+01 -1.0604225524843132e+01 -1.4266596286179379e+02 0 0 0
735 21 2 0.0000000000000000e+00 -9.9216882539383008e+01 -1.5603599355057185e+00 -1.4125142151114403e+02 0 0 0
6340 182 4 0.0000000000000000e+00 -8.0657521712528705e+01 -3.2145495349997240e+00 -1.3591381562196921e+02 0 0 0
561 17 2 0.0000000000000000e+00 -1.2007158617702460e+02 1.3327205771427108e+01 -1.4588701238898784e+02 0 0 0
6342 182 4 0.0000000000000000e+00 -8.1549557835048788e+01 1.4924511274794055e+01 -1.4053592582666332e+02 0 0 0
6341 182 4 0.0000000000000000e+00 -7.7553817471938373e+01 5.8801136414445363e+00 -1.3915002651888133e+02 0 0 0
3019 87 2 0.0000000000000000e+00 -2.5092654483649422e+01 9.6759530548693977e+00 -1.4495239564876587e+02 0 0 0
562 17 2 0.0000000000000000e+00 -1.1772834531818634e+02 2.1097533088861606e+01 -1.3990357083148822e+02 0 0 0
6343 182 4 0.0000000000000000e+00 -8.2411573576165765e+01 2.4172249067090373e+01 -1.3595074347500574e+02 0 0 0
582 17 2 0.0000000000000000e+00 -6.7382924257193125e+01 2.5522003407357502e+01 -1.4416230904584719e+02 0 0 0
6499 186 4 0.0000000000000000e+00 -5.9275128127344942e+01 -5.8155610360729817e+01 -1.2618450344919015e+02 0 0 0
6500 186 3 0.0000000000000000e+00 -5.0016482376960269e+01 -5.6302053238325634e+01 -1.2245090016204462e+02 0 0 0
6501 186 4 0.0000000000000000e+00 -4.1127705600302512e+01 -5.3357114858852519e+01 -1.2527566128840743e+02 0 0 0
4726 136 4 0.0000000000000000e+00 -3.2931643010953366e+01 -6.1905053066131764e+01 -1.2537643466167157e+02 0 0 0
6502 186 4 0.0000000000000000e+00 -3.1111433495789029e+01 -5.1011310585123624e+01 -1.2563197193014568e+02 0 0 0
5424 155 4 0.0000000000000000e+00 -9.0384036378749542e+01 -3.6264145454126187e+01 -1.2235368563649935e+02 0 0 0
6503 186 4 0.0000000000000000e+00 -2.5807066021444751e+01 -4.2128969295626788e+01 -1.2618818478229660e+02 0 0 0
5423 155 4 0.0000000000000000e+00 -9.8342283685275873e+01 -3.1399370999867298e+01 -1.2653989014099299e+02 0 0 0
1789 52 1 0.0000000000000000e+00 -8.9840574309414436e+01 -2.2388075621449101e+01 -1.2310238699318801e+02 0 0 0
1790 52 2 0.0000000000000000e+00 -8.2791562714997895e+01 -2.2993266453829673e+01 -1.3116817211936026e+02 0 0 0
1792 52 2 0.0000000000000000e+00 -6.4901987006977734e+01 -2.6812698067060044e+01 -1.2931422571253856e+02 0 0 0
4742 136 4 0.0000000000000000e+00 -2.8566216923913018e+01 -2.8049267593110947e+01 -1.2391981916862015e+02 0 0 0
1791 52 2 0.0000000000000000e+00 -7.2788875607482595e+01 -2.1563458804434767e+01 -1.3213404972869799e+02 0 0 0
1796 52 1 0.0000000000000000e+00 -7.8680215695230359e+01 -1.2056315064503680e+01 -1.2969239876393496e+02 0 0 0
5908 169 4 0.0000000000000000e+00 -6.2442643846664772e+01 -1.4469734032175683e+01 -1.3020044296985461e+02 0 0 0
2240 64 2 0.0000000000000000e+00 -5.1206124092776768e+01 -1.4012535202767650e+01 -1.2459415804374349e+02 0 0 0
2239 64 2 0.0000000000000000e+00 -4.3748931728006561e+01 -2.0601557227522790e+01 -1.2589003284543250e+02 0 0 0
1627 47 2 0.0000000000000000e+00 -2.8995556297264216e+01 -1.2308383888633202e+01 -1.3226331801358589e+02 0 0 0
734 21 2 0.0000000000000000e+00 -9.3933685027808096e+01 -1.8532072860118436e+00 -1.3239782977624108e+02 0 0 0
733 21 2 0.0000000000000000e+00 -8.7539023787110892e+01 3.2380894445887356e+00 -1.2719504619054003e+02 0 0 0
5906 169 4 0.0000000000000000e+00 -7.4446299745978166e+01 -5.1583008911277661e-01 -1.2676796685410881e+02 0 0 0
5907 169 4 0.0000000000000000e+00 -6.8377198911378073e+01 -7.4240454393541953e+00 -1.3130510275532745e+02 0 0 0
5540 159 4 0.0000000000000000e+00 -3.5007346599033163e+01 -5.2595106236062570e+00 -1.2927335645221495e+02 0 0 0
5539 159 4 0.0000000000000000e+00 -2.6899663821993737e+01 7.6678380345562414e-01 -1.3135622237898261e+02 0 0 0
1628 47 1 0.0000000000000000e+00 -2.5587564793081356e+01 -7.3205867826448037e+00 -1.2437767897679063e+02 0 0 0
6299 180 4 0.0000000000000000e+00 -1.5140709397642530e+02 1.1518333881028529e+01 -1.3168400611866409e+02 0 0 0
6300 180 4 0.0000000000000000e+00 -1.5813413649975845e+02 1.1623513081624219e+01 -1.2302387449621182e+02 0 0 0
6298 180 4 0.0000000000000000e+00 -1.4250062627382363e+02 1.6127483253621818e+01 -1.3148404654804506e+02 0 0 0
6297 180 3 0.0000000000000000e+00 -1.3444717717122120e+02 1.4945464444063278e+01 -1.2616111213170409e+02 0 0 0
1801 52 2 0.0000000000000000e+00 -4.3357684577643269e+01 1.6618679751749461e+01 -1.2622066358296159e+02 0 0 0
1800 52 2 0.0000000000000000e+00 -5.0011327768043429e+01 9.8338147324013754e+00 -1.2400907689283318e+02 0 0 0
5538 159 4 0.0000000000000000e+00 -2.9637787641347966e+01 9.9593042849711946e+00 -1.3369975909608507e+02 0 0 0
5537 159 4 0.0000000000000000e+00 -3.4912648409348158e+01 1.8258987719727919e+01 -1.3081845176895769e+02 0 0 0
6296 180 4 0.0000000000000000e+00 -1.2681272661764544e+02 2.1524288031081547e+01 -1.2562545861814766e+02 0 0 0
563 17 2 0.0000000000000000e+00 -1.1612404584096032e+02 2.9939922541258863e+01 -1.3579207478023022e+02 0 0 0
5416 155 4 0.0000000000000000e+00 -1.0565330860715393e+02 2.3594671754277552e+01 -1.2316801191966384e+02 0 0 0
6344 182 4 0.0000000000000000e+00 -8.9290504294127160e+01 2.6222420559750734e+01 -1.2881065432189860e+02 0 0 0
581 17 2 0.0000000000000000e+00 -6.7185094467541063e+01 2.1313796704331160e+01 -1.3522325122488093e+02 0 0 0
580 17 2 0.0000000000000000e+00 -6.5712816294188741e+01 2.0779852530681207e+01 -1.2470768040163333e+02 0 0 0
1802 52 2 0.0000000000000000e+00 -4.3239062832164080e+01 2.6541224832912452e+01 -1.2925973738503461e+02 0 0 0
5536 159 4 0.0000000000000000e+00 -3.2292301512336124e+01 2.7806342287158415e+01 -1.2817560210964970e+02 0 0 0
2801 81 2 0.0000000000000000e+00 -8.1116626003753055e+01 -9.3695727182395629e+01 -1.1330247417607211e+02 0 0 0
5426 156 4 0.0000000000000000e+00 -6.8449591902442734e+01 -6.5886159968253097e+01 -1.1810092448575550e+02 0 0 0
5427 156 4 0.0000000000000000e+00 -6.4787061014274784e+01 -7.2971197129354579e+01 -1.1121576196109922e+02 0 0 0
6498 186 4 0.0000000000000000e+00 -6.2242616293938589e+01 -5.0582953307242072e+01 -1.2096386233092434e+02 0 0 0
2552 73 1 0.0000000000000000e+00 -5.3414041341231446e+01 -5.7118042716068480e+01 -1.1189393202812738e+02 0 0 0
2553 73 2 0.0000000000000000e+00 -4.6163504838267926e+01 -4.9825257837633089e+01 -1.1060681045664654e+02 0 0 0
4727 136 4 0.0000000000000000e+00 -2.5787956756708656e+01 -6.1874519075305017e+01 -1.1806139950600709e+02 0 0 0
5425 155 4 0.0000000000000000e+00 -8.3304403397587322e+01 -4.1280252758958255e+01 -1.1875106787683977e+02 0 0 0
6497 186 4 0.0000000000000000e+00 -6.7815398556990715e+01 -4.8833804011394172e+01 -1.1289576468744539e+02 0 0 0
4746 136 4 0.0000000000000000e+00 -5.6997888394256464e+01 -3.8222268929567996e+01 -1.1744468121340373e+02 0 0 0
4745 136 4 0.0000000000000000e+00 -4.7797703469520087e+01 -4.0165408225890509e+01 -1.2033186583912089e+02 0 0 0
4744 136 4 0.0000000000000000e+00 -3.8244682201139923e+01 -4.3171719578535964e+01 -1.2168000466374036e+02 0 0 0
1632 47 2 0.0000000000000000e+00 -2.5756488526327953e+01 -4.1595663863023937e+01 -1.0975718997506647e+02 0 0 0
6491 186 4 0.0000000000000000e+00 -1.1060099701611678e+02 -2.4407257941393212e+01 -1.1476905974626681e+02 0 0 0
6492 186 4 0.0000000000000000e+00 -1.0349756446746296e+02 -3.1334839038307482e+01 -1.1366949994579147e+02 0 0 0
5422 155 3 0.0000000000000000e+00 -1.0055495266560192e+02 -2.2776339750835408e+01 -1.2157300571373175e+02 0 0 0
1788 52 2 0.0000000000000000e+00 -8.7712665931698623e+01 -2.6309975965648537e+01 -1.1417319595526051e+02 0 0 0
1787 52 2 0.0000000000000000e+00 -7.8512852558421798e+01 -2.9040790868941802e+01 -1.1085177096142279e+02 0 0 0
1786 52 2 0.0000000000000000e+00 -7.3453825780355601e+01 -2.4706107037405264e+01 -1.1911740796875127e+02 0 0 0
4747 136 4 0.0000000000000000e+00 -6.5798429389817045e+01 -3.5446708402414501e+01 -1.1444029633031765e+02 0 0 0
5910 169 4 0.0000000000000000e+00 -5.6641432290549467e+01 -2.8136468274416288e+01 -1.1818822859235992e+02 0 0 0
5911 169 4 0.0000000000000000e+00 -6.1109372271189137e+01 -2.8567092370653363e+01 -1.0918935210552840e+02 0 0 0
2238 64 2 0.0000000000000000e+00 -3.8844394431085327e+01 -2.2952141971583227e+01 -1.1773414811395713e+02 0 0 0
4743 136 3 0.0000000000000000e+00 -3.5236948106090175e+01 -3.3526421187748142e+01 -1.1885627016443982e+02 0 0 0
2237 64 1 0.0000000000000000e+00 -3.4769992074006481e+01 -2.7805681361951347e+01 -1.0950891243557177e+02 0 0 0
1631 47 2 0.0000000000000000e+00 -2.6707092015922498e+01 -3.2409125154258319e+01 -1.1247365222192580e+02 0 0 0
1630 47 2 0.0000000000000000e+00 -2.5317404146574461e+01 -2.2348176018253852e+01 -1.1414038954954212e+02 0 0 0
6490 186 4 0.0000000000000000e+00 -1.1454381479071453e+02 -1.4943386842847200e+01 -1.1513855937507627e+02 0 0 0
5421 155 4 0.0000000000000000e+00 -9.7704896219505130e+01 -1.4980629103154659e+01 -1.1543648208948518e+02 0 0 0
1797 52 2 0.0000000000000000e+00 -7.2514646251040745e+01 -9.1062787756486028e+00 -1.2229838114985390e+02 0 0 0
5909 169 4 0.0000000000000000e+00 -6.0132523976581432e+01 -2.0149342635773191e+01 -1.2199513770662367e+02 0 0 0
5542 159 4 0.0000000000000000e+00 -3.8299546498720780e+01 -1.2724882340327687e+01 -1.1122601335486377e+02 0 0 0
5541 159 3 0.0000000000000000e+00 -3.6068721515409500e+01 -9.2425829853844732e+00 -1.2008965427553579e+02 0 0 0
6489 186 4 0.0000000000000000e+00 -1.2158826461270232e+02 -8.3114558761173836e+00 -1.1780302664848311e+02 0 0 0
6488 186 4 0.0000000000000000e+00 -1.3018005477745569e+02 -2.2566495615985014e+00 -1.1618693601963153e+02 0 0 0
5420 155 4 0.0000000000000000e+00 -9.9054479500430574e+01 -5.6550917762998401e+00 -1.1332694892108806e+02 0 0 0
5419 155 4 0.0000000000000000e+00 -9.4264862202683503e+01 3.3698451833521061e+00 -1.1278194197264683e+02 0 0 0
5905 169 3 0.0000000000000000e+00 -7.6825615798177225e+01 3.9447002783638756e+00 -1.1849826823588789e+02 0 0 0
1799 52 2 0.0000000000000000e+00 -5.7932231156625591e+01 3.8459804425586128e+00 -1.2199991858128003e+02 0 0 0
2066 60 2 0.0000000000000000e+00 -5.6900764110682012e+01 -6.6094834119956554e+00 -1.1329181439649766e+02 0 0 0
1798 52 2 0.0000000000000000e+00 -6.2916406996158017e+01 -4.5877941647265965e+00 -1.2155104108271709e+02 0 0 0
6182 177 4 0.0000000000000000e+00 -4.6328158193504684e+01 -1.0590147512553132e+00 -1.1117559875633256e+02 0 0 0
6183 177 4 0.0000000000000000e+00 -3.5826514390073392e+01 -2.2040168968428424e+00 -1.1200068779168087e+02 0 0 0
6184 177 4 0.0000000000000000e+00 -2.8956303683455300e+01 2.5783519661848864e+00 -1.1605872994840956e+02 0 0 0
3308 95 1 0.0000000000000000e+00 -1.3824009231692261e+02 1.6417643714869900e+01 -1.1612465827866791e+02 0 0 0
6487 186 4 0.0000000000000000e+00 -1.3341481427997391e+02 6.5638775027777392e+00 -1.1325774114529291e+02 0 0 0
1721 50 2 0.0000000000000000e+00 -1.1799866957092260e+02 7.9477307085471400e+00 -1.1626112029141599e+02 0 0 0
1722 50 2 0.0000000000000000e+00 -1.1009983607305767e+02 1.4395558164723246e+01 -1.1424489767232593e+02 0 0 0
5417 155 4 0.0000000000000000e+00 -1.0157446706263013e+02 1.5260207288853975e+01 -1.2145408653212431e+02 0 0 0
5418 155 4 0.0000000000000000e+00 -9.6983252103704700e+01 1.2780825328580610e+01 -1.1290229509206031e+02 0 0 0
732 21 1 0.0000000000000000e+00 -8.5456749384532799e+01 1.0262864455602974e+01 -1.2048971745987031e+02 0 0 0
5904 169 4 0.0000000000000000e+00 -7.9682401587178134e+01 8.8319849549492861e+00 -1.0974416853251894e+02 0 0 0
579 17 2 0.0000000000000000e+00 -6.8935308076339879e+01 1.4412947322546779e+01 -1.1780211564113709e+02 0 0 0
6180 177 4 0.0000000000000000e+00 -5.7767156152074129e+01 1.1620111947498469e+01 -1.0914536538328649e+02 0 0 0
3202 92 2 0.0000000000000000e+00 -2.9331619365170475e+01 1.7852117677946204e+01 -1.1141725102404061e+02 0 0 0
6185 177 3 0.0000000000000000e+00 -2.4856429117283156e+01 1.0541543518566149e+01 -1.2071307090324797e+02 0 0 0
3310 95 2 0.0000000000000000e+00 -1.5011184198141990e+02 2.7526725609090672e+01 -1.1793964103435142e+02 0 0 0
3309 95 2 0.0000000000000000e+00 -1.4483130790390808e+02 2.2822755149684614e+01 -1.1160385460738792e+02 0 0 0
3307 95 2 0.0000000000000000e+00 -1.3511323451401091e+02 2.5045084471422776e+01 -1.1888280527367031e+02 0 0 0
6295 180 4 0.0000000000000000e+00 -1.2212633343639068e+02 2.9760856312492475e+01 -1.2166578320173140e+02 0 0 0
6346 182 3 0.0000000000000000e+00 -9.6199853231423106e+01 2.5224840834250323e+01 -1.1134061509538718e+02 0 0 0
6345 182 4 0.0000000000000000e+00 -9.2084913149480897e+01 2.2597190691507766e+01 -1.1988911767452851e+02 0 0 0
731 21 2 0.0000000000000000e+00 -8.1152771460104333e+01 2.0033594852002111e+01 -1.2147775846212465e+02 0 0 0
730 21 2 0.0000000000000000e+00 -7.8767655358936821e+01 2.9616955109277601e+01 -1.1863214073138121e+02 0 0 0
578 17 1 0.0000000000000000e+00 -7.1103560242562637e+01 2.1033482532220869e+01 -1.1056359612099165e+02 0 0 0
6179 177 4 0.0000000000000000e+00 -5.9480228755777702e+01 2.1187239186752098e+01 -1.1119105844330983e+02 0 0 0
6178 177 3 0.0000000000000000e+00 -6.4056646096141151e+01 2.9350703936675938e+01 -1.1511315677838918e+02 0 0 0
5533 159 4 0.0000000000000000e+00 -4.8822847899297663e+01 3.1495350262849215e+01 -1.1228401496042031e+02 0 0 0
5532 159 4 0.0000000000000000e+00 -4.7457118310520855e+01 2.1239131095924268e+01 -1.1099769310747189e+02 0 0 0
3383 97 2 0.0000000000000000e+00 -3.1850261945079438e+01 3.0720130825187983e+01 -1.1255915355677924e+02 0 0 0
6233 179 4 0.0000000000000000e+00 -7.0735401779921631e+01 -9.0854308101396498e+01 -1.0143963611391418e+02 0 0 0
2802 81 2 0.0000000000000000e+00 -8.1645147548032796e+01 -8.7023678111757931e+01 -1.0510914982222737e+02 0 0 0
2803 81 2 0.0000000000000000e+00 -7.7788499586541150e+01 -7.8690718848136143e+01 -1.0022636531370418e+02 0 0 0
6232 179 4 0.0000000000000000e+00 -6.2588995156753001e+01 -8.5076010144907400e+01 -1.0040837262834005e+02 0 0 0
6231 179 4 0.0000000000000000e+00 -5.2826835500629791e+01 -8.3124926877679158e+01 -1.0093844008995531e+02 0 0 0
2549 73 2 0.0000000000000000e+00 -7.2914561919156057e+01 -6.9384604596615816e+01 -9.6007041400400880e+01 0 0 0
2550 73 2 0.0000000000000000e+00 -6.4761307764351443e+01 -6.4429444943751363e+01 -9.8787606144789422e+01 0 0 0
5428 156 4 0.0000000000000000e+00 -5.6385486420792482e+01 -7.0640386395487511e+01 -1.0510982957906371e+02 0 0 0
5429 156 3 0.0000000000000000e+00 -4.6354102069635516e+01 -6.8843745093319470e+01 -1.0653008003058775e+02 0 0 0
5430 156 4 0.0000000000000000e+00 -3.7395756680772728e+01 -6.5591157932624455e+01 -1.0218174220607513e+02 0 0 0
2092 60 2 0.0000000000000000e+00 -2.8834266250220988e+01 -7.5792260902611801e+01 -9.9846611093356998e+01 0 0 0
4200 120 4 0.0000000000000000e+00 -7.7927362364354465e+01 -5.7977508080825956e+01 -9.6667317810769873e+01 0 0 0
4199 120 4 0.0000000000000000e+00 -6.8606353684429294e+01 -5.5292416777715097e+01 -9.7534070375195768e+01 0 0 0
6496 186 4 0.0000000000000000e+00 -7.7004477174942039e+01 -5.0077806243193095e+01 -1.0834434416685417e+02 0 0 0
2551 73 2 0.0000000000000000e+00 -6.0742203524466433e+01 -6.0007074386310933e+01 -1.0623579398289415e+02 0 0 0
4198 120 4 0.0000000000000000e+00 -6.1981440642533691e+01 -5.0615305298352489e+01 -1.0315144480947887e+02 0 0 0
5431 156 4 0.0000000000000000e+00 -2.8855583571833677e+01 -6.0759787606613941e+01 -1.0041782539973960e+02 0 0 0
6494 186 4 0.0000000000000000e+00 -9.4082308716559098e+01 -4.0487523246400386e+01 -1.0551669533583782e+02 0 0 0
6495 186 4 0.0000000000000000e+00 -8.5513165742027596e+01 -4.4974555342017140e+01 -1.0650749396231426e+02 0 0 0
1367 40 2 0.0000000000000000e+00 -7.9051439256908338e+01 -4.3817830772405387e+01 -9.6616687993026787e+01 0 0 0
4748 136 4 0.0000000000000000e+00 -7.2787871531996785e+01 -3.6080237276991163e+01 -1.0728096811256162e+02 0 0 0
1368 40 2 0.0000000000000000e+00 -6.9911482881598559e+01 -4.2101612441288680e+01 -9.9026172834616446e+01 0 0 0
4197 120 3 0.0000000000000000e+00 -5.4326130506994417e+01 -4.4930296907742388e+01 -1.0399911393023028e+02 0 0 0
1369 40 1 0.0000000000000000e+00 -6.1198350450180136e+01 -3.6714860454740908e+01 -1.0022462612780026e+02 0 0 0
2554 73 2 0.0000000000000000e+00 -3.8812651515713917e+01 -4.5256168949158628e+01 -1.0597580238488875e+02 0 0 0
4196 120 4 0.0000000000000000e+00 -4.7241749110331675e+01 -4.1077176357487431e+01 -9.7825313049981688e+01 0 0 0
2555 73 2 0.0000000000000000e+00 -3.3415020116150416e+01 -3.7370451255435519e+01 -1.0228118423637831e+02 0 0 0
2526 73 2 0.0000000000000000e+00 -1.2120548122493012e+02 -3.5109202137312948e+01 -1.0013536312921646e+02 0 0 0
2525 73 2 0.0000000000000000e+00 -1.1510893814304853e+02 -2.9988694138574012e+01 -1.0528596523132224e+02 0 0 0
2524 73 1 0.0000000000000000e+00 -1.0705596627214499e+02 -2.5004021431424263e+01 -1.0369561876833731e+02 0 0 0
6493 186 3 0.0000000000000000e+00 -1.0173302621062277e+02 -3.4786415674813313e+01 -1.0502109822526181e+02 0 0 0
4749 136 4 0.0000000000000000e+00 -8.0638738954026962e+01 -3.3047523179241537e+01 -1.0254057114183512e+02 0 0 0
4750 136 3 0.0000000000000000e+00 -8.9024263417857597e+01 -3.3336961185334438e+01 -9.6531957602461745e+01 0 0 0
5912 169 3 0.0000000000000000e+00 -6.7896945834476114e+01 -2.5807897845015834e+01 -1.0307812969320379e+02 0 0 0
2236 64 2 0.0000000000000000e+00 -2.7941443423330728e+01 -2.8244349290919242e+01 -1.0249971345721283e+02 0 0 0
2927 84 2 0.0000000000000000e+00 -1.2174243010358582e+02 -1.6613152970068221e+01 -9.8564913357256899e+01 0 0 0
2926 84 2 0.0000000000000000e+00 -1.1316118862390816e+02 -1.5614281386952356e+01 -1.0402415738925161e+02 0 0 0
930 27 2 0.0000000000000000e+00 -1.1239461510607401e+02 -1.0719160158818038e+01 -9.5835091364687486e+01 0 0 0
2523 73 2 0.0000000000000000e+00 -9.8274112757961177e+01 -1.9884458318418094e+01 -1.0494814993879152e+02 0 0 0
2925 84 2 0.0000000000000000e+00 -1.0408844609837419e+02 -1.2869593673502811e+01 -1.0117960586642485e+02 0 0 0
2522 73 2 0.0000000000000000e+00 -9.1267956395564795e+01 -1.2591286705982535e+01 -1.0279178803962142e+02 0 0 0
5914 169 4 0.0000000000000000e+00 -8.1048114019251699e+01 -1.2493971613163351e+01 -9.7752556694229042e+01 0 0 0
5913 169 4 0.0000000000000000e+00 -7.5945095964166100e+01 -2.0759584183272963e+01 -1.0024407004964921e+02 0 0 0
2067 60 2 0.0000000000000000e+00 -5.7673828579001963e+01 -1.2857789658194934e+01 -1.0540174776846287e+02 0 0 0
2068 60 2 0.0000000000000000e+00 -6.0585165615448965e+01 -1.8504229684833494e+01 -9.7171586904077202e+01 0 0 0
5543 159 4 0.0000000000000000e+00 -4.4993589227490766e+01 -1.1499377542132535e+01 -1.0352218114547729e+02 0 0 0
5544 159 4 0.0000000000000000e+00 -5.0882713510352183e+01 -1.3995538562124123e+01 -9.6019345134295406e+01 0 0 0
1373 40 2 0.0000000000000000e+00 -3.3099661846078249e+01 -1.7885391872482163e+01 -1.0037604742264072e+02 0 0 0
1374 40 2 0.0000000000000000e+00 -2.5530052788315029e+01 -1.6449520187170645e+01 -1.0653462293676159e+02 0 0 0
1718 50 2 0.0000000000000000e+00 -1.3575653708644407e+02 -2.9595179546614134e+00 -9.8360442072440350e+01 0 0 0
1719 50 1 0.0000000000000000e+00 -1.2923440695399091e+02 3.3491838339008622e+00 -1.0183030925898883e+02 0 0 0
929 27 2 0.0000000000000000e+00 -1.1581929088651638e+02 -2.8475143630218436e+00 -1.0128650294550773e+02 0 0 0
2919 84 2 0.0000000000000000e+00 -1.0186470107174507e+02 2.8992219556906385e+00 -1.0279110340793446e+02 0 0 0
2521 73 2 0.0000000000000000e+00 -8.4225203356577452e+01 -5.4330506296276759e+00 -1.0490295146706440e+02 0 0 0
6518 187 4 0.0000000000000000e+00 -6.3814242284071824e+01 4.6748330821165123e+00 -9.9666831206819552e+01 0 0 0
6517 187 4 0.0000000000000000e+00 -6.2185603447472296e+01 -4.6849967824324663e+00 -9.5511009919603339e+01 0 0 0
6181 177 4 0.0000000000000000e+00 -5.4187835698631751e+01 3.0957727903798675e+00 -1.0689793548612998e+02 0 0 0
6318 181 3 0.0000000000000000e+00 -4.4297865549374023e+01 -2.0387036814033177e+00 -9.8454605718559961e+01 0 0 0
6319 181 4 0.0000000000000000e+00 -3.4732011777103203e+01 -3.9068958193510785e+00 -1.0007508982428557e+02 0 0 0
6320 181 4 0.0000000000000000e+00 -3.0606501187769531e+01 4.9119132399276086e+00 -1.0069778929314785e+02 0 0 0
6486 186 3 0.0000000000000000e+00 -1.3806055073913811e+02 9.0186195529371123e+00 -1.0433695109065042e+02 0 0 0
1720 50 2 0.0000000000000000e+00 -1.2372066225681753e+02 9.5885286423209077e+00 -1.0738649402263503e+02 0 0 0
1723 50 2 0.0000000000000000e+00 -1.1240910631651064e+02 1.3594702112392842e+01 -1.0434189912577338e+02 0 0 0
2920 84 2 0.0000000000000000e+00 -9.7528728291062933e+01 1.0501917296447488e+01 -9.8744188952377584e+01 0 0 0
3726 107 4 0.0000000000000000e+00 -8.7603937982868544e+01 1.6588101764614727e+01 -9.7962168419596182e+01 0 0 0
5903 169 4 0.0000000000000000e+00 -7.7373074541604339e+01 1.1442848473111610e+01 -1.0019207319903133e+02 0 0 0
5531 159 4 0.0000000000000000e+00 -4.8686264361840955e+01 1.4345808992272655e+01 -1.0329118589380614e+02 0 0 0
3200 92 2 0.0000000000000000e+00 -4.0493945181267712e+01 1.2291736186025657e+01 -9.7908823365718106e+01 0 0 0
3201 92 2 0.0000000000000000e+00 -3.7368798437958958e+01 1.3245989488325181e+01 -1.0723162419836029e+02 0 0 0
2502 72 2 0.0000000000000000e+00 -1.0652386641690089e+02 2.4089860587662148e+01 -9.6033853902718832e+01 0 0 0
2503 72 1 0.0000000000000000e+00 -9.9503913997471884e+01 2.7977134569675393e+01 -1.0104975518184857e+02 0 0 0
3725 107 4 0.0000000000000000e+00 -7.9764495661156275e+01 2.0433173935730110e+01 -1.0326138088183995e+02 0 0 0
3724 107 4 0.0000000000000000e+00 -7.3859025961833183e+01 2.8616903242619042e+01 -1.0104205748360987e+02 0 0 0
577 17 2 0.0000000000000000e+00 -6.5203881435056147e+01 2.4339785505850209e+01 -1.0249298703839163e+02 0 0 0
5142 147 3 0.0000000000000000e+00 -5.1513488754493011e+01 2.7148816712647825e+01 -1.0161853007800671e+02 0 0 0
5141 147 4 0.0000000000000000e+00 -4.3014006770902988e+01 2.2446812589685184e+01 -9.9962740541289932e+01 0 0 0
5140 147 4 0.0000000000000000e+00 -3.3098081037849013e+01 2.2353903824015628e+01 -1.0278824233977748e+02 0 0 0
6234 179 3 0.0000000000000000e+00 -7.0757418983571398e+01 -9.0671900629502460e+01 -9.1060248220615065e+01 0 0 0
6235 179 4 0.0000000000000000e+00 -7.4995162361296607e+01 -9.3042660824993376e+01 -8.2350849149750488e+01 0 0 0
2804 81 1 0.0000000000000000e+00 -7.2005674937485139e+01 -7.9411570123966584e+01 -9.1592659119666777e+01 0 0 0
246 8 2 0.0000000000000000e+00 -4.9372079785235286e+01 -8.5843588746496806e+01 -8.9333016870354470e+01 0 0 0
247 8 2 0.0000000000000000e+00 -4.3799427341791365e+01 -7.9357970578663640e+01 -8.3908954286754920e+01 0 0 0
2548 73 2 0.0000000000000000e+00 -7.9328162947567279e+01 -6.9097090297737353e+01 -8.7920147210049620e+01 0 0 0
1391 40 2 0.0000000000000000e+00 -6.6831581036756432e+01 -6.7942225873904349e+01 -8.3532861622988662e+01 0 0 0
2089 60 2 0.0000000000000000e+00 -5.4590779153663043e+01 -6.5714822280987107e+01 -9.3229387429498118e+01 0 0 0
2090 60 1 0.0000000000000000e+00 -4.4880606909954921e+01 -6.8746340905634511e+01 -9.5037631461517975e+01 0 0 0
2091 60 2 0.0000000000000000e+00 -3.5277649593851130e+01 -7.1829336462897288e+01 -9.3234922892123635e+01 0 0 0
6257 179 4 0.0000000000000000e+00 -1.0722255102045493e+02 -5.2779448395381593e+01 -8.8513689721740093e+01 0 0 0
2087 60 2 0.0000000000000000e+00 -6.6759876832108603e+01 -5.4932959341120359e+01 -8.1931484584463092e+01 0 0 0
2088 60 2 0.0000000000000000e+00 -5.9722096393103811e+01 -6.0302083864601897e+01 -8.6577665640277630e+01 0 0 0
2633 76 2 0.0000000000000000e+00 -5.3998748700015703e+01 -5.3589051772724545e+01 -9.4426200951814963e+01 0 0 0
2634 76 2 0.0000000000000000e+00 -4.4308545028025137e+01 -5.3218085328930464e+01 -9.2187918232543183e+01 0 0 0
2635 76 2 0.0000000000000000e+00 -3.4562042327495377e+01 -5.2637769800325444e+01 -9.0417529446383185e+01 0 0 0
2636 76 1 0.0000000000000000e+00 -2.5752177361472508e+01 -5.5937902972716735e+01 -8.7418434094017641e+01 0 0 0
2527 73 2 0.0000000000000000e+00 -1.2210368255617108e+02 -3.6798323604686104e+01 -9.0071417352603063e+01 0 0 0
6259 179 4 0.0000000000000000e+00 -1.1188407965933173e+02 -3.7604471749977435e+01 -9.3574574749275357e+01 0 0 0
2528 73 2 0.0000000000000000e+00 -1.1943547514976305e+02 -4.3770535692644721e+01 -8.3149726158080128e+01 0 0 0
6258 179 4 0.0000000000000000e+00 -1.0605555903376052e+02 -4.5620144646719801e+01 -9.4605764338326964e+01 0 0 0
1366 40 2 0.0000000000000000e+00 -8.8775458295769752e+01 -4.4051475432532605e+01 -9.3891429118112285e+01 0 0 0
2632 76 2 0.0000000000000000e+00 -5.6825455582980048e+01 -4.4005940134816562e+01 -9.0284740313569273e+01 0 0 0
2631 76 2 0.0000000000000000e+00 -6.3132601303078694e+01 -3.6365138232782186e+01 -9.0337620721242430e+01 0 0 0
4195 120 4 0.0000000000000000e+00 -4.7116543830718918e+01 -3.9019672196907557e+01 -8.8705086175270836e+01 0 0 0
4843 139 4 0.0000000000000000e+00 -3.6376866436214875e+01 -4.3188772805216679e+01 -8.3505657757746846e+01 0 0 0
4844 139 4 0.0000000000000000e+00 -2.8965447879664421e+01 -4.4638384226444131e+01 -9.0785032402539173e+01 0 0 0
6261 179 4 0.0000000000000000e+00 -1.2114062026279051e+02 -2.2819220935361574e+01 -8.8662003149159418e+01 0 0 0
6260 179 4 0.0000000000000000e+00 -1.1472843215593507e+02 -2.8454765426037092e+01 -9.3933277102020796e+01 0 0 0
4751 136 4 0.0000000000000000e+00 -9.6270258202975441e+01 -2.9077981743057620e+01 -9.0667559303601976e+01 0 0 0
4752 136 4 0.0000000000000000e+00 -1.0262209919238946e+02 -2.9737815375086747e+01 -8.2960136929582333e+01 0 0 0
2629 76 1 0.0000000000000000e+00 -8.3016838037376928e+01 -3.5527470503853756e+01 -8.7030455654735448e+01 0 0 0
3745 107 4 0.0000000000000000e+00 -8.9384977438793356e+01 -2.2650859830410834e+01 -8.5025189901806144e+01 0 0 0
2630 76 2 0.0000000000000000e+00 -7.3143172787036960e+01 -3.4295942752128198e+01 -8.8033789031304025e+01 0 0 0
2069 60 1 0.0000000000000000e+00 -6.7467858733031349e+01 -2.3265348243158623e+01 -9.2236204080900549e+01 0 0 0
1370 40 2 0.0000000000000000e+00 -5.5402579444164822e+01 -3.0346656916352771e+01 -9.4887428545525168e+01 0 0 0
2070 60 2 0.0000000000000000e+00 -6.4850572936553334e+01 -2.6299374830329988e+01 -8.2795926822170486e+01 0 0 0
1371 40 2 0.0000000000000000e+00 -4.7267452582669904e+01 -2.5889788985758859e+01 -9.0395068876460343e+01 0 0 0
2235 64 2 0.0000000000000000e+00 -2.7693436295244652e+01 -3.0912814223239028e+01 -9.2865342334935718e+01 0 0 0
1372 40 2 0.0000000000000000e+00 -3.7724892752525868e+01 -2.3138758990729741e+01 -9.3674105202564036e+01 0 0 0
2212 64 2 0.0000000000000000e+00 -3.4889665263638264e+01 -3.2758183062144560e+01 -8.5743760233815308e+01 0 0 0
2211 64 2 0.0000000000000000e+00 -3.1415147440541276e+01 -2.3758874574348393e+01 -8.5324803738123109e+01 0 0 0
2929 84 2 0.0000000000000000e+00 -1.3765213958483830e+02 -1.7457252223350579e+01 -8.8067587125478738e+01 0 0 0
6262 179 3 0.0000000000000000e+00 -1.3001858878960317e+02 -2.1889562447000674e+01 -8.3738627783232175e+01 0 0 0
2928 84 2 0.0000000000000000e+00 -1.2966132372680565e+02 -1.6543554556581661e+01 -9.3217716775032372e+01 0 0 0
4755 136 4 0.0000000000000000e+00 -1.2305534571772927e+02 -1.1568357806303531e+01 -8.4154153304500653e+01 0 0 0
931 27 2 0.0000000000000000e+00 -1.1285409370467441e+02 -1.5466309612912115e+01 -8.7308510993346587e+01 0 0 0
2924 84 2 0.0000000000000000e+00 -9.7173036053360647e+01 -9.6326976589080431e+00 -9.3933250620195082e+01 0 0 0
3729 107 4 0.0000000000000000e+00 -8.2851657523981132e+01 -9.6959638994323072e+00 -8.5785096907401112e+01 0 0 0
3730 107 4 0.0000000000000000e+00 -7.8540278505689628e+01 -1.9352260824427500e+01 -8.5635549468890972e+01 0 0 0
6516 187 4 0.0000000000000000e+00 -6.0686200073641743e+01 -1.0309243952342539e+01 -8.7175769181921964e+01 0 0 0
5545 159 4 0.0000000000000000e+00 -4.9084906768392372e+01 -1.5280785980969023e+01 -8.6718420837054353e+01 0 0 0
2210 64 2 0.0000000000000000e+00 -3.6465149624780423e+01 -1.5096413216500917e+01 -8.6498389421589891e+01 0 0 0
1717 50 2 0.0000000000000000e+00 -1.4163006180926632e+02 3.2008176190643656e-01 -8.9799000332524315e+01 0 0 0
928 27 1 0.0000000000000000e+00 -1.2080343573921320e+02 2.9973889475613422e+00 -9.4365222233294190e+01 0 0 0
4756 136 4 0.0000000000000000e+00 -1.2839767499770403e+02 -6.0493454562217588e+00 -9.0475943834102523e+01 0 0 0
4757 136 3 0.0000000000000000e+00 -1.3121603382328902e+02 4.1248280292009367e+00 -8.9173295829982891e+01 0 0 0
2917 84 2 0.0000000000000000e+00 -1.0499687843766903e+02 -2.7606132130205463e+00 -8.4633162618846313e+01 0 0 0
2918 84 2 0.0000000000000000e+00 -1.0346130435141897e+02 1.3732014864975273e+00 -9.3176484141788990e+01 0 0 0