LAMMPS data file via write_data, version 5 Jun 2019, timestep = 320000000

7000 atoms
4 atom types
7290 bonds
3 bond types
6600 angles
2 angle types

-5.0000000000000000e+02 5.0000000000000000e+02 xlo xhi
-5.0000000000000000e+02 5.0000000000000000e+02 ylo yhi
-5.0000000000000000e+02 5.0000000000000000e+02 zlo zhi

Masses

1 1000
2 1000
3 1000
4 1000

Pair Coeffs # lj/cut

1 0.296 10
2 0.296 10
3 0.296 10
4 0.296 10

Angle Coeffs # cosine

1 2
2 2

Atoms # full

2555 73 2 0.0000000000000000e+00 -6.9359931820140076e+01 -3.8348626236304533e+01 -1.7525353006807578e+02 0 0 0
2554 73 2 0.0000000000000000e+00 -6.6662750852995657e+01 -4.2138130677788048e+01 -1.6585407874529136e+02 0 0 0
2553 73 2 0.0000000000000000e+00 -6.2570812965203743e+01 -4.0775902447903370e+01 -1.5645712528836501e+02 0 0 0
2552 73 1 0.0000000000000000e+00 -5.9253081728791940e+01 -3.3564754227141400e+01 -1.5117965517032769e+02 0 0 0
2239 64 2 0.0000000000000000e+00 -2.8911893453226995e+01 -4.3926004274822319e+01 -1.4813723066171403e+02 0 0 0
4743 136 3 0.0000000000000000e+00 -2.5869609727466681e+01 -2.5692538096039492e+01 -1.4745152428585266e+02 0 0 0
4742 136 4 0.0000000000000000e+00 -1.6950513548353889e+01 -2.4468455834121034e+01 -1.5082837589208461e+02 0 0 0
1625 47 2 0.0000000000000000e+00 -1.5617733316851899e+01 -5.2465600453902423e+00 -1.4929513163884931e+02 0 0 0
4547 130 3 0.0000000000000000e+00 -1.9152085829457331e+01 4.2495021109479154e+00 -1.5079220626857034e+02 0 0 0
5537 159 4 0.0000000000000000e+00 -5.6414592845797216e+01 1.3614302729870786e+01 -1.5016380543797200e+02 0 0 0
5536 159 4 0.0000000000000000e+00 -6.1764546406521426e+01 2.1732499293615948e+01 -1.5312431999374090e+02 0 0 0
2226 64 2 0.0000000000000000e+00 -1.7116935090700792e+01 -7.1498827362348933e+01 -1.3627549667120314e+02 0 0 0
2227 64 2 0.0000000000000000e+00 -2.1761429247137947e+01 -6.2347184532487958e+01 -1.3597246113859146e+02 0 0 0
2240 64 2 0.0000000000000000e+00 -2.5979083091027864e+01 -5.2547602759577998e+01 -1.4701880256730178e+02 0 0 0
4729 136 3 0.0000000000000000e+00 -1.5222109107755951e+01 -4.7590908877866525e+01 -1.3773911910600617e+02 0 0 0
6498 186 4 0.0000000000000000e+00 -7.1871628250262631e+01 -4.2719705526088624e+01 -1.4276911093957943e+02 0 0 0
6497 186 4 0.0000000000000000e+00 -7.8306707659651153e+01 -3.5781181628527790e+01 -1.3953930746707596e+02 0 0 0
6499 186 4 0.0000000000000000e+00 -6.2733495768154064e+01 -3.8737512704633161e+01 -1.4171760141447257e+02 0 0 0
6500 186 3 0.0000000000000000e+00 -5.3147816776245890e+01 -3.7417448313013118e+01 -1.4265590922767950e+02 0 0 0
6501 186 4 0.0000000000000000e+00 -4.3437411710699791e+01 -3.8693167301729844e+01 -1.3947227543333085e+02 0 0 0
2238 64 2 0.0000000000000000e+00 -3.0849666023383278e+01 -3.5677068319149889e+01 -1.4290799735630171e+02 0 0 0
6496 186 4 0.0000000000000000e+00 -7.6862785422703453e+01 -2.6933954859811628e+01 -1.3474053609122188e+02 0 0 0
2551 73 2 0.0000000000000000e+00 -5.9569293589148067e+01 -2.7946278864514777e+01 -1.4307055070718974e+02 0 0 0
2550 73 2 0.0000000000000000e+00 -5.9559417668058479e+01 -2.1544168096522718e+01 -1.3446230524577939e+02 0 0 0
4746 136 4 0.0000000000000000e+00 -4.8818689327176884e+01 -3.0383305188910686e+01 -1.3348095502486888e+02 0 0 0
4744 136 4 0.0000000000000000e+00 -3.5788464101541727e+01 -2.6584887950839313e+01 -1.4600840149715870e+02 0 0 0
4745 136 4 0.0000000000000000e+00 -4.0348564518974698e+01 -2.7625760430088253e+01 -1.3776359704270453e+02 0 0 0
2237 64 1 0.0000000000000000e+00 -3.0447370564678575e+01 -2.7448088026663751e+01 -1.3710616362069777e+02 0 0 0
4543 130 4 0.0000000000000000e+00 -1.4885372006784984e+01 -2.5469762848602993e+01 -1.3560069980853399e+02 0 0 0
2066 60 2 0.0000000000000000e+00 -6.9277231975717356e+01 -9.3470813634929701e+00 -1.3352254710155452e+02 0 0 0
1627 47 2 0.0000000000000000e+00 -3.1217581123464385e+01 -8.5809590893239722e+00 -1.3958377544452222e+02 0 0 0
1626 47 2 0.0000000000000000e+00 -2.4186498770264826e+01 -1.0212362776920795e+01 -1.4665248218749994e+02 0 0 0
4545 130 4 0.0000000000000000e+00 -2.1454430414724690e+01 -7.9375226421916896e+00 -1.3609511322154549e+02 0 0 0
6519 187 4 0.0000000000000000e+00 -5.6727674973772167e+01 8.0075347019333929e+00 -1.3390859075838802e+02 0 0 0
6518 187 4 0.0000000000000000e+00 -5.4896537783144218e+01 -1.9730398485958311e+00 -1.3616547300538977e+02 0 0 0
5539 159 4 0.0000000000000000e+00 -4.1126892222612973e+01 6.6115482788950359e+00 -1.4037986964482135e+02 0 0 0
4546 130 4 0.0000000000000000e+00 -2.1703113734672556e+01 -5.5088236065990465e-03 -1.4181807001898397e+02 0 0 0
1800 52 2 0.0000000000000000e+00 -6.5733209791522995e+01 1.2616396920343627e+01 -1.3694448960368183e+02 0 0 0
1801 52 2 0.0000000000000000e+00 -6.2996980335043531e+01 2.1636607881798465e+01 -1.4118837651949309e+02 0 0 0
5538 159 4 0.0000000000000000e+00 -4.9341473073820701e+01 1.0366259214180026e+01 -1.4371389429604616e+02 0 0 0
3022 87 2 0.0000000000000000e+00 -1.8345133972433622e+01 9.6744686399972153e+00 -1.3705067506374866e+02 0 0 0
5426 156 4 0.0000000000000000e+00 -2.1731886431675434e+01 -8.4931619997730465e+01 -1.2263910617946591e+02 0 0 0
2228 64 2 0.0000000000000000e+00 -1.8870941352434176e+01 -5.7108644842733526e+01 -1.2756327436800062e+02 0 0 0
1634 47 2 0.0000000000000000e+00 -2.6471377313473436e+01 -4.8998386896534626e+01 -1.2027220565877137e+02 0 0 0
2229 64 2 0.0000000000000000e+00 -1.4264614993869301e+01 -4.8925911443224841e+01 -1.2471853346668632e+02 0 0 0
4748 136 4 0.0000000000000000e+00 -6.0351205540513817e+01 -3.4761943516654327e+01 -1.2157032316224247e+02 0 0 0
4747 136 4 0.0000000000000000e+00 -5.7847444697035073e+01 -3.3858766655878767e+01 -1.3070324837994229e+02 0 0 0
6502 186 4 0.0000000000000000e+00 -3.7416141298579326e+01 -3.9355631630218681e+01 -1.3209968030494127e+02 0 0 0
6503 186 4 0.0000000000000000e+00 -3.0433572188117317e+01 -3.5749154995712537e+01 -1.2594316296458595e+02 0 0 0
1635 47 1 0.0000000000000000e+00 -2.2465061026051742e+01 -4.5750629127299490e+01 -1.2899827029925271e+02 0 0 0
1636 47 2 0.0000000000000000e+00 -2.2305038790734752e+01 -3.6316692030595519e+01 -1.3207122416596079e+02 0 0 0
6504 186 4 0.0000000000000000e+00 -2.1929363877803350e+01 -3.6774307249251308e+01 -1.2067167286711205e+02 0 0 0
6495 186 4 0.0000000000000000e+00 -8.1854247271680151e+01 -2.1898844205931002e+01 -1.2841811882302619e+02 0 0 0
2548 73 2 0.0000000000000000e+00 -7.2900054005501886e+01 -2.9171284733651028e+01 -1.2090639678598937e+02 0 0 0
2549 73 2 0.0000000000000000e+00 -6.7035688189688017e+01 -2.5314875126056407e+01 -1.2779992345057764e+02 0 0 0
2235 64 2 0.0000000000000000e+00 -3.9074121302656444e+01 -2.6809439432106931e+01 -1.2071548890065743e+02 0 0 0
2236 64 2 0.0000000000000000e+00 -3.3377145909303863e+01 -2.4217125985010455e+01 -1.2843492517943960e+02 0 0 0
1630 47 2 0.0000000000000000e+00 -2.7211273420846652e+01 -2.0225655973665020e+01 -1.2060755368062742e+02 0 0 0
1637 47 2 0.0000000000000000e+00 -2.1199885297276840e+01 -2.8566255213357177e+01 -1.2610137493570947e+02 0 0 0
2067 60 2 0.0000000000000000e+00 -7.3068007289765347e+01 -1.5265233464839184e+01 -1.2683303184420116e+02 0 0 0
2068 60 2 0.0000000000000000e+00 -7.4597933960251780e+01 -7.9434242476475143e+00 -1.2113543339568029e+02 0 0 0
6516 187 4 0.0000000000000000e+00 -4.2759709998424626e+01 -1.1210454185555950e+01 -1.2674347854613555e+02 0 0 0
6517 187 4 0.0000000000000000e+00 -5.0967795707698549e+01 -9.3588627256692281e+00 -1.3139417502806404e+02 0 0 0
1629 47 2 0.0000000000000000e+00 -3.2604785751116310e+01 -1.2677428633836689e+01 -1.2443710322394105e+02 0 0 0
1628 47 1 0.0000000000000000e+00 -2.9844432968343387e+01 -6.0400021581667298e+00 -1.3016352960666464e+02 0 0 0
4544 130 4 0.0000000000000000e+00 -1.6788430018201076e+01 -1.6167918169160323e+01 -1.3335098452405285e+02 0 0 0
3025 87 2 0.0000000000000000e+00 -2.1685927668132848e+01 -5.5805470375836128e+00 -1.2227354697537118e+02 0 0 0
1799 52 2 0.0000000000000000e+00 -6.5704245077347935e+01 3.0608649971845328e+00 -1.3264759248339740e+02 0 0 0
1798 52 2 0.0000000000000000e+00 -6.5953778214694211e+01 7.7033222329526718e-01 -1.2322827520966328e+02 0 0 0
2908 84 2 0.0000000000000000e+00 -4.7059055591676398e+01 4.8391593787954044e+00 -1.2743140768772120e+02 0 0 0
2907 84 2 0.0000000000000000e+00 -4.9688757371866707e+01 -1.2720786760984846e+00 -1.2071238622446874e+02 0 0 0
5540 159 4 0.0000000000000000e+00 -3.7009866135420907e+01 2.0944465926398674e+00 -1.3192529826041780e+02 0 0 0
5541 159 3 0.0000000000000000e+00 -3.7373779103805830e+01 -1.8476607585766622e+00 -1.2287966493817758e+02 0 0 0
3024 87 2 0.0000000000000000e+00 -2.7303751787097784e+01 2.2001452525580891e+00 -1.2441479868422510e+02 0 0 0
3023 87 2 0.0000000000000000e+00 -2.7001651422801036e+01 8.4055733762126952e+00 -1.3198039773510331e+02 0 0 0
6337 182 4 0.0000000000000000e+00 -7.3332595104849432e+01 1.9273411809800393e+01 -1.2737410528535791e+02 0 0 0
6338 182 4 0.0000000000000000e+00 -7.0971821224287638e+01 1.2532638835662834e+01 -1.2058203391228349e+02 0 0 0
6520 187 4 0.0000000000000000e+00 -5.5745052885218136e+01 1.0434309819055869e+01 -1.2402014154000740e+02 0 0 0
2909 84 1 0.0000000000000000e+00 -4.4331676480927499e+01 1.3804078175453489e+01 -1.2340054292681852e+02 0 0 0
3202 92 2 0.0000000000000000e+00 -2.3509790156052052e+01 2.2323198227381297e+01 -1.2620237230943913e+02 0 0 0
5139 147 4 0.0000000000000000e+00 -1.3917207036185749e+01 1.1114154059406260e+01 -1.2122101728607235e+02 0 0 0
2096 60 2 0.0000000000000000e+00 -1.8612580595047135e+01 -1.3230670433019677e+02 -1.1096766272295612e+02 0 0 0
2094 60 2 0.0000000000000000e+00 -2.3540316410637203e+01 -1.1626291279166226e+02 -1.1984521350895513e+02 0 0 0
2095 60 2 0.0000000000000000e+00 -1.8979404456280765e+01 -1.2462682621335064e+02 -1.1741142541205977e+02 0 0 0
2093 60 2 0.0000000000000000e+00 -2.9464698011639978e+01 -1.0827537075647390e+02 -1.1757630329386502e+02 0 0 0
3996 115 4 0.0000000000000000e+00 -1.4846521766981224e+01 -1.1412529931096141e+02 -1.0926478461678656e+02 0 0 0
3997 115 4 0.0000000000000000e+00 -1.5529125466270218e+01 -1.0788039584931471e+02 -1.1670174158433279e+02 0 0 0
2091 60 2 0.0000000000000000e+00 -3.3779869251089252e+01 -8.9650975764228178e+01 -1.1171595784528996e+02 0 0 0
2092 60 2 0.0000000000000000e+00 -3.3578760450394711e+01 -1.0019641320457751e+02 -1.1199977034258876e+02 0 0 0
5427 156 4 0.0000000000000000e+00 -2.1517218944275609e+01 -9.2868380557673333e+01 -1.1673670429430443e+02 0 0 0
2206 64 2 0.0000000000000000e+00 -3.1612502504226985e+01 -7.5497905904106773e+01 -1.1922148249904264e+02 0 0 0
2090 60 1 0.0000000000000000e+00 -3.0992926262750839e+01 -8.0709559737390848e+01 -1.0828474630575687e+02 0 0 0
5428 156 4 0.0000000000000000e+00 -2.1204624567583913e+01 -8.4177202876808465e+01 -1.1179644174974392e+02 0 0 0
5429 156 3 0.0000000000000000e+00 -2.2524727902598826e+01 -7.4430759243425143e+01 -1.1054362763271591e+02 0 0 0
2207 64 2 0.0000000000000000e+00 -3.6251485244929626e+01 -6.9602665683340831e+01 -1.1235903617557858e+02 0 0 0
2633 76 2 0.0000000000000000e+00 -2.8124614058580001e+01 -6.2346667886185728e+01 -1.1201675829208739e+02 0 0 0
5430 156 4 0.0000000000000000e+00 -1.6965052887678283e+01 -6.5956354944670124e+01 -1.0925584419704919e+02 0 0 0
5431 156 4 0.0000000000000000e+00 -1.5557550775278633e+01 -6.2838872726298696e+01 -1.1794513539127345e+02 0 0 0
2630 76 2 0.0000000000000000e+00 -5.4420830507812632e+01 -4.9689413517725690e+01 -1.1116601448569351e+02 0 0 0
2631 76 2 0.0000000000000000e+00 -4.7075521233113427e+01 -5.6642075901900242e+01 -1.0865363227007280e+02 0 0 0
2632 76 2 0.0000000000000000e+00 -3.6818717360242474e+01 -5.8254322549298990e+01 -1.1075368561687600e+02 0 0 0
1633 47 2 0.0000000000000000e+00 -2.9843925243069354e+01 -4.7237440979634108e+01 -1.1107331727223480e+02 0 0 0
1632 47 2 0.0000000000000000e+00 -2.8881749494537591e+01 -3.7669815812339330e+01 -1.1278368759074175e+02 0 0 0
2231 64 2 0.0000000000000000e+00 -1.5535119371105615e+01 -4.5630090828375963e+01 -1.0660412813819696e+02 0 0 0
6505 186 4 0.0000000000000000e+00 -1.7312941909264719e+01 -3.3340978928988690e+01 -1.1332383899772297e+02 0 0 0
2230 64 1 0.0000000000000000e+00 -1.5549983580029188e+01 -4.4139689440940735e+01 -1.1625863348841990e+02 0 0 0
6494 186 4 0.0000000000000000e+00 -8.1931939865267097e+01 -2.3457406100435655e+01 -1.1858457946143398e+02 0 0 0
6493 186 3 0.0000000000000000e+00 -8.8918988397581288e+01 -1.9056598958153224e+01 -1.1337352988531931e+02 0 0 0
2547 73 2 0.0000000000000000e+00 -7.5122349438976173e+01 -3.1443640975457001e+01 -1.1144108442750152e+02 0 0 0
2522 73 2 0.0000000000000000e+00 -7.7126854375694862e+01 -1.9244609093488290e+01 -1.1109264803954147e+02 0 0 0
4749 136 4 0.0000000000000000e+00 -6.5488521140781131e+01 -3.0372088235694644e+01 -1.1379861068029346e+02 0 0 0
2234 64 2 0.0000000000000000e+00 -3.5316196779509987e+01 -2.8693901387568488e+01 -1.1146833454060445e+02 0 0 0
1631 47 2 0.0000000000000000e+00 -2.6265188190188979e+01 -2.8341805938170300e+01 -1.1373567250745502e+02 0 0 0
1638 47 2 0.0000000000000000e+00 -1.6497520548883443e+01 -2.3475157922578635e+01 -1.1917457618629881e+02 0 0 0
6492 186 4 0.0000000000000000e+00 -8.8593632757660586e+01 -1.0901292492916397e+01 -1.0853807467843289e+02 0 0 0
2521 73 2 0.0000000000000000e+00 -7.0175980380998723e+01 -1.8086900020242989e+01 -1.1817385555512807e+02 0 0 0
2906 84 2 0.0000000000000000e+00 -5.5598593802899316e+01 -7.5059348228477880e+00 -1.1582887267886079e+02 0 0 0
6515 187 4 0.0000000000000000e+00 -4.1956779107210018e+01 -1.4758187937723401e+01 -1.1732604909741488e+02 0 0 0
5543 159 4 0.0000000000000000e+00 -4.6826316314761790e+01 -7.3653784468626515e+00 -1.0740707749825226e+02 0 0 0
6514 187 3 0.0000000000000000e+00 -3.4238122732579981e+01 -1.8006983122283362e+01 -1.1162131535803316e+02 0 0 0
5121 147 3 0.0000000000000000e+00 -3.3793189974362612e+01 -6.9870039706819718e+00 -1.0685818523040750e+02 0 0 0
3026 87 2 0.0000000000000000e+00 -1.7924736884984476e+01 -1.2524868154893259e+01 -1.1662769539257383e+02 0 0 0
5530 158 4 0.0000000000000000e+00 -1.7010954223966476e+02 -3.1640696364729615e+00 -1.1387725905457486e+02 0 0 0
2069 60 1 0.0000000000000000e+00 -7.5329395155071026e+01 -4.2352026321964145e+00 -1.1144292334850115e+02 0 0 0
1797 52 2 0.0000000000000000e+00 -6.0059879058988983e+01 2.9460964719157965e+00 -1.1561656178764305e+02 0 0 0
1796 52 1 0.0000000000000000e+00 -6.1459284922486432e+01 8.7894384843595450e+00 -1.0807094745100760e+02 0 0 0
5542 159 4 0.0000000000000000e+00 -4.1139423463923315e+01 -3.6448545284900238e+00 -1.1450974234352482e+02 0 0 0
5120 147 4 0.0000000000000000e+00 -3.0565398867691087e+01 5.8361838327214111e-01 -1.1291834335641055e+02 0 0 0
1898 55 2 0.0000000000000000e+00 -1.4189881134840965e+01 -2.7940017750356136e+00 -1.0850562932165978e+02 0 0 0
5119 147 4 0.0000000000000000e+00 -2.5784471774093198e+01 8.3377698271250473e+00 -1.0984792219127989e+02 0 0 0
5910 169 4 0.0000000000000000e+00 -8.0162535301229312e+01 1.7319048457277173e+01 -1.1885251155066184e+02 0 0 0
5911 169 4 0.0000000000000000e+00 -7.8549163542883804e+01 1.0215896588064700e+01 -1.1214967871764112e+02 0 0 0
6339 182 3 0.0000000000000000e+00 -7.0622049158657347e+01 1.5077710801510099e+01 -1.1032588136882336e+02 0 0 0
6521 187 3 0.0000000000000000e+00 -5.3453109324405155e+01 1.7582141356560999e+01 -1.1837177864277102e+02 0 0 0
6522 187 4 0.0000000000000000e+00 -4.9747540492500505e+01 1.5686996309222282e+01 -1.1006258714604346e+02 0 0 0
3201 92 2 0.0000000000000000e+00 -2.8117456271252404e+01 1.7118491273173660e+01 -1.1882426585860836e+02 0 0 0
3390 97 2 0.0000000000000000e+00 -3.8874468341181569e+01 1.8498960658687103e+01 -1.1404459074638923e+02 0 0 0
3391 97 2 0.0000000000000000e+00 -3.5467611658595473e+01 9.9412638720309925e+00 -1.0892618652607351e+02 0 0 0
3200 92 2 0.0000000000000000e+00 -2.7084725202182153e+01 1.9527541347762206e+01 -1.0897427137839138e+02 0 0 0
3992 115 4 0.0000000000000000e+00 -3.6802073198240073e+01 -1.3930228950778235e+02 -9.3270379738150382e+01 0 0 0
3993 115 4 0.0000000000000000e+00 -2.9693344327603764e+01 -1.3154459751098932e+02 -9.5372474508041748e+01 0 0 0
2097 60 1 0.0000000000000000e+00 -2.0157443197168213e+01 -1.3439106673294654e+02 -1.0156468051749549e+02 0 0 0
3995 115 4 0.0000000000000000e+00 -1.5137202557881359e+01 -1.2236457705841818e+02 -1.0372300889378057e+02 0 0 0
3994 115 3 0.0000000000000000e+00 -2.5052306723168233e+01 -1.2435051674889677e+02 -1.0086689615907258e+02 0 0 0
6335 181 4 0.0000000000000000e+00 -6.9978531184898927e+01 -8.2647687393833152e+01 -9.8042863789046251e+01 0 0 0
1534 44 2 0.0000000000000000e+00 -4.3416113519876852e+01 -7.6603501899254937e+01 -9.2872717964406803e+01 0 0 0
1535 44 2 0.0000000000000000e+00 -3.3767744744942519e+01 -7.4184869755777541e+01 -9.3922201835040980e+01 0 0 0
4847 139 4 0.0000000000000000e+00 -1.5683012100228776e+01 -7.5968997800671161e+01 -9.8280528094841912e+01 0 0 0
6320 181 4 0.0000000000000000e+00 -6.9600872420980949e+01 -7.1940426658525624e+01 -9.3766490489836869e+01 0 0 0
6319 181 4 0.0000000000000000e+00 -6.2471759699175657e+01 -6.5307847417655921e+01 -9.5664742384232198e+01 0 0 0
2208 64 2 0.0000000000000000e+00 -4.2641869200599878e+01 -6.8032769476141866e+01 -1.0443446492236390e+02 0 0 0
2209 64 1 0.0000000000000000e+00 -4.8924037597332379e+01 -6.3009982262352388e+01 -9.8244800403786414e+01 0 0 0
2089 60 2 0.0000000000000000e+00 -3.0944930037396077e+01 -7.1605003177066436e+01 -1.0369232889058920e+02 0 0 0
2088 60 2 0.0000000000000000e+00 -3.5003519384711552e+01 -6.3063689073022779e+01 -1.0302910202686897e+02 0 0 0
1533 44 2 0.0000000000000000e+00 -4.0823452893039473e+01 -6.6537553803044275e+01 -9.3352186420490540e+01 0 0 0
2634 76 2 0.0000000000000000e+00 -2.4641155515757930e+01 -6.2060443110169430e+01 -1.0320695408750797e+02 0 0 0
2635 76 2 0.0000000000000000e+00 -2.4411261687539401e+01 -6.7976035231440392e+01 -9.4964332699110898e+01 0 0 0
4200 120 4 0.0000000000000000e+00 -7.6829434223436110e+01 -5.5850201703610615e+01 -9.2844350832699405e+01 0 0 0
6318 181 3 0.0000000000000000e+00 -5.8080564666014084e+01 -5.6318493112825152e+01 -9.7287225479813060e+01 0 0 0
6317 181 4 0.0000000000000000e+00 -4.8875499180257265e+01 -5.2542729771173349e+01 -9.4934684244322028e+01 0 0 0
2087 60 2 0.0000000000000000e+00 -3.4909597327120061e+01 -5.3473711808566591e+01 -1.0115376087797240e+02 0 0 0
5128 147 3 0.0000000000000000e+00 -2.5863384658361660e+01 -4.6754916675656467e+01 -9.5889846580226148e+01 0 0 0
5129 147 4 0.0000000000000000e+00 -1.6272729985837895e+01 -4.8790190721576415e+01 -9.7083301131320226e+01 0 0 0
6254 179 4 0.0000000000000000e+00 -9.0838656156601729e+01 -4.5262647162793613e+01 -9.4496831722415990e+01 0 0 0
6255 179 3 0.0000000000000000e+00 -8.9967116514654705e+01 -3.6704288990133882e+01 -9.8842274316637457e+01 0 0 0
2546 73 2 0.0000000000000000e+00 -7.9621928041712479e+01 -3.6296308410772525e+01 -1.0425071010738802e+02 0 0 0
2545 73 1 0.0000000000000000e+00 -7.9680674945250729e+01 -3.7614582140029285e+01 -9.4455419431362230e+01 0 0 0
4750 136 3 0.0000000000000000e+00 -6.8239946233087267e+01 -3.5433456518085656e+01 -1.0577529281105780e+02 0 0 0
4751 136 4 0.0000000000000000e+00 -7.0483437162692852e+01 -3.2239232207716576e+01 -9.5946345877673750e+01 0 0 0
2629 76 1 0.0000000000000000e+00 -5.9982091981257042e+01 -4.3577413830433706e+01 -1.0533933055852116e+02 0 0 0
2628 76 2 0.0000000000000000e+00 -5.8651603152063778e+01 -3.3920427720229085e+01 -1.0357263139249011e+02 0 0 0
6316 181 4 0.0000000000000000e+00 -4.4455476349902909e+01 -4.3639510324220360e+01 -9.5371854526695827e+01 0 0 0
6315 181 4 0.0000000000000000e+00 -4.2582663219450687e+01 -3.3843282383000933e+01 -9.2957700161978735e+01 0 0 0
2085 60 2 0.0000000000000000e+00 -4.0972425131262391e+01 -3.6278556682737381e+01 -1.0533908820524471e+02 0 0 0
2233 64 2 0.0000000000000000e+00 -2.9402882333583605e+01 -3.3247075934087015e+01 -1.0445561157354118e+02 0 0 0
2086 60 2 0.0000000000000000e+00 -3.9625426039733057e+01 -4.5546107371397376e+01 -1.0547078620042706e+02 0 0 0
5127 147 4 0.0000000000000000e+00 -3.3490749361843356e+01 -4.1211521876034254e+01 -9.7840975054102870e+01 0 0 0
2232 64 2 0.0000000000000000e+00 -2.2335198841504390e+01 -4.0138973513638575e+01 -1.0324554947894018e+02 0 0 0
2525 73 2 0.0000000000000000e+00 -9.8781005234034950e+01 -2.7249307879333685e+01 -1.0247245691733742e+02 0 0 0
2526 73 2 0.0000000000000000e+00 -9.9389924143231852e+01 -3.0160519467709875e+01 -9.3252797234354389e+01 0 0 0
2524 73 1 0.0000000000000000e+00 -9.3027230496849128e+01 -1.9511519453895826e+01 -1.0293263707991015e+02 0 0 0
6256 179 4 0.0000000000000000e+00 -8.7749782476201801e+01 -2.7003331523162984e+01 -9.7656138233293831e+01 0 0 0
2523 73 2 0.0000000000000000e+00 -8.3390198955019116e+01 -1.8777077042841153e+01 -1.0257845746462698e+02 0 0 0
2626 76 2 0.0000000000000000e+00 -7.2430546646601385e+01 -2.4001679198726809e+01 -1.0261884247851640e+02 0 0 0
2627 76 2 0.0000000000000000e+00 -6.3091642724531312e+01 -2.6569113158545612e+01 -9.9518097400679437e+01 0 0 0
5545 159 4 0.0000000000000000e+00 -5.5448485167524034e+01 -2.1067321615408439e+01 -9.6214765858849347e+01 0 0 0
2084 60 2 0.0000000000000000e+00 -4.2872760856380424e+01 -2.7339794265559132e+01 -1.0315378640743104e+02 0 0 0
6513 187 4 0.0000000000000000e+00 -2.7926062398459297e+01 -2.1019508663653173e+01 -1.0447936273842990e+02 0 0 0
1526 44 2 0.0000000000000000e+00 -3.4421244780802461e+01 -1.8415099862453726e+01 -9.3178605963969815e+01 0 0 0
6506 186 4 0.0000000000000000e+00 -1.7895943999578254e+01 -3.1048609078170315e+01 -1.0359545088739895e+02 0 0 0
1527 44 2 0.0000000000000000e+00 -2.6318910015916103e+01 -2.3880040063801971e+01 -9.4880093948859979e+01 0 0 0
6491 186 4 0.0000000000000000e+00 -8.5028692089024219e+01 -7.9083474501004876e+00 -1.0002670528918279e+02 0 0 0
6257 179 4 0.0000000000000000e+00 -8.5779249176232398e+01 -1.8151662251447654e+01 -9.3328037736014693e+01 0 0 0
2071 60 2 0.0000000000000000e+00 -7.4371337318314971e+01 -1.3697825531002380e+01 -9.6754247026187457e+01 0 0 0
2070 60 2 0.0000000000000000e+00 -7.5118116689421441e+01 -5.2836005073404211e+00 -1.0147805037494807e+02 0 0 0
5544 159 4 0.0000000000000000e+00 -5.1366264416051202e+01 -1.3488823758958873e+01 -1.0072365778189632e+02 0 0 0
2083 60 1 0.0000000000000000e+00 -3.8956792366192374e+01 -1.7757230606474820e+01 -1.0195537308226764e+02 0 0 0
2082 60 2 0.0000000000000000e+00 -3.9853139452101850e+01 -9.5902429282087702e+00 -9.5833606101887000e+01 0 0 0
6512 187 4 0.0000000000000000e+00 -1.9347849365501901e+01 -1.8094194930081063e+01 -9.9036590935044728e+01 0 0 0
5122 147 4 0.0000000000000000e+00 -2.5259017995784600e+01 -8.7247080964709518e+00 -1.0214352342653189e+02 0 0 0
5529 158 4 0.0000000000000000e+00 -1.7202502308468564e+02 1.2614865875960704e+00 -1.0531236679268528e+02 0 0 0
5528 158 4 0.0000000000000000e+00 -1.7096450717651021e+02 4.5234069518822961e+00 -9.5671262913285858e+01 0 0 0
5912 169 3 0.0000000000000000e+00 -7.3724248641492650e+01 5.2252252637500147e+00 -1.0487431511344785e+02 0 0 0
5913 169 4 0.0000000000000000e+00 -7.3627157691382948e+01 8.5589762147863375e+00 -9.4879914760989848e+01 0 0 0
3392 97 1 0.0000000000000000e+00 -3.2830873451799945e+01 3.4086476518363509e+00 -1.0209747498018271e+02 0 0 0
3393 97 2 0.0000000000000000e+00 -2.7605889472039898e+01 2.0456888054992800e-01 -9.4615008185134727e+01 0 0 0
1900 55 2 0.0000000000000000e+00 -1.8996404889455608e+01 7.1406372458600433e+00 -9.3691386527380672e+01 0 0 0
1899 55 2 0.0000000000000000e+00 -1.4569585833774758e+01 -1.9108387657268783e-01 -9.8551742813601479e+01 0 0 0
2201 63 2 0.0000000000000000e+00 -1.6022852264978749e+02 1.6940309026485590e+01 -9.5245142684189389e+01 0 0 0
6265 179 4 0.0000000000000000e+00 -1.1913126642338970e+02 1.6018882915446969e+01 -1.0419857287214722e+02 0 0 0
6264 179 4 0.0000000000000000e+00 -1.1751152828436308e+02 1.7508356054895764e+01 -9.3891327219170464e+01 0 0 0
6340 182 4 0.0000000000000000e+00 -7.3994020689046678e+01 2.2270681367138138e+01 -1.0596256387966700e+02 0 0 0
6524 187 4 0.0000000000000000e+00 -5.4650230740737719e+01 1.9490760726340337e+01 -9.4459601491463900e+01 0 0 0
1795 52 2 0.0000000000000000e+00 -6.6743562903239834e+01 1.4047550238111038e+01 -1.0084652857275570e+02 0 0 0
6523 187 4 0.0000000000000000e+00 -4.6694247019247243e+01 1.8031427271618281e+01 -1.0045509219327771e+02 0 0 0
5117 147 4 0.0000000000000000e+00 -2.7253995906853945e+01 1.7878473913918832e+01 -9.3506419089555592e+01 0 0 0
5118 147 4 0.0000000000000000e+00 -2.4336593997457101e+01 1.3891126464012535e+01 -1.0134471613290577e+02 0 0 0
3991 115 4 0.0000000000000000e+00 -4.4251930689712054e+01 -1.4492989517179976e+02 -8.9794174532797967e+01 0 0 0
2099 60 2 0.0000000000000000e+00 -2.3432580119076093e+01 -1.3453901196980610e+02 -8.3281652985540489e+01 0 0 0
2098 60 2 0.0000000000000000e+00 -1.9160838926687720e+01 -1.3682511491096628e+02 -9.2146411946214741e+01 0 0 0
6328 181 4 0.0000000000000000e+00 -2.5518943929479416e+01 -9.6528452180919771e+01 -8.0153900063480307e+01 0 0 0
1368 40 2 0.0000000000000000e+00 -7.9617779284666213e+01 -7.5296284827526975e+01 -8.1894671064562203e+01 0 0 0
6334 181 4 0.0000000000000000e+00 -6.8443024839959065e+01 -8.0410596080698497e+01 -8.8081760542716367e+01 0 0 0
6333 181 4 0.0000000000000000e+00 -6.1843054554369246e+01 -7.9916699794493638e+01 -8.0495133829630831e+01 0 0 0
6324 181 4 0.0000000000000000e+00 -3.3607974023379725e+01 -7.4485411082345308e+01 -8.1930546868197183e+01 0 0 0
1536 44 2 0.0000000000000000e+00 -2.5768326819389230e+01 -7.6243766331954376e+01 -8.8451945968103530e+01 0 0 0
1537 44 1 0.0000000000000000e+00 -1.9856662157810838e+01 -8.3671321988977766e+01 -8.5109383293655497e+01 0 0 0
4199 120 4 0.0000000000000000e+00 -6.9864859152911720e+01 -6.1790209055952083e+01 -8.9771748970030956e+01 0 0 0
4198 120 4 0.0000000000000000e+00 -7.2831388044604452e+01 -6.2716500431739227e+01 -7.9478864038802811e+01 0 0 0
6321 181 4 0.0000000000000000e+00 -6.1114959468085125e+01 -7.3051186049278797e+01 -8.8554307296794931e+01 0 0 0
2211 64 2 0.0000000000000000e+00 -5.6855763266711712e+01 -6.1871020837252367e+01 -8.0437836470110852e+01 0 0 0
6322 181 4 0.0000000000000000e+00 -5.2491614043047740e+01 -7.1593147171219684e+01 -8.3577851330912992e+01 0 0 0
2210 64 2 0.0000000000000000e+00 -5.3173635958082194e+01 -6.0799699197319171e+01 -8.9299558744576615e+01 0 0 0
6323 181 4 0.0000000000000000e+00 -4.2694830937665280e+01 -7.0069452620230450e+01 -8.2377447604996519e+01 0 0 0
1532 44 2 0.0000000000000000e+00 -3.9732709857224435e+01 -5.9689898250118830e+01 -8.5955963433651391e+01 0 0 0
4842 139 4 0.0000000000000000e+00 -2.7561639230387531e+01 -6.3358078483170466e+01 -8.2373208033773565e+01 0 0 0
2636 76 1 0.0000000000000000e+00 -1.9862142598796115e+01 -6.9089394470879895e+01 -8.5521676585667748e+01 0 0 0
6253 179 4 0.0000000000000000e+00 -8.0998001862534096e+01 -4.7588474067632951e+01 -9.0838329842548788e+01 0 0 0
6252 179 4 0.0000000000000000e+00 -7.7714379680873250e+01 -5.0860504030457619e+01 -8.1950909097211536e+01 0 0 0
1383 40 1 0.0000000000000000e+00 -5.5090061028349552e+01 -4.7916399535963770e+01 -8.7803524921236203e+01 0 0 0
1382 40 2 0.0000000000000000e+00 -5.1179397723240697e+01 -4.9839442534943728e+01 -7.9517833307241290e+01 0 0 0
1531 44 2 0.0000000000000000e+00 -3.8829013749730159e+01 -4.9886645628876806e+01 -8.9015732392899693e+01 0 0 0
4844 139 4 0.0000000000000000e+00 -1.6216134161335606e+01 -4.9748161535734951e+01 -8.7126314557576919e+01 0 0 0
4843 139 4 0.0000000000000000e+00 -2.4683108226241462e+01 -5.5117755120852685e+01 -8.6182735787814892e+01 0 0 0
2543 73 2 0.0000000000000000e+00 -9.3286081393272241e+01 -4.3171768398816333e+01 -8.1109281216440081e+01 0 0 0
2544 73 2 0.0000000000000000e+00 -8.6984375338313441e+01 -3.9202525001050233e+01 -8.8044131230623009e+01 0 0 0
1385 40 2 0.0000000000000000e+00 -7.2018932924517870e+01 -3.9957532388194309e+01 -8.5975038805358849e+01 0 0 0
1384 40 2 0.0000000000000000e+00 -6.3980425989177036e+01 -4.4351491062186959e+01 -8.9462683096682099e+01 0 0 0
5547 159 4 0.0000000000000000e+00 -5.5598570954403435e+01 -3.6064858142323835e+01 -8.7408842900600007e+01 0 0 0
1386 40 2 0.0000000000000000e+00 -6.6151949073524079e+01 -3.5492246858831521e+01 -7.9302393799404967e+01 0 0 0
5548 159 3 0.0000000000000000e+00 -4.7709117707496929e+01 -4.0695671836731300e+01 -8.3105902546767339e+01 0 0 0
1530 44 1 0.0000000000000000e+00 -3.0955779980846142e+01 -4.4838136792814218e+01 -8.6157374092487515e+01 0 0 0
5126 147 4 0.0000000000000000e+00 -3.2937360116320704e+01 -3.3671053087146142e+01 -9.1175914434711899e+01 0 0 0
1528 44 2 0.0000000000000000e+00 -2.1385563925845272e+01 -3.2317851882941724e+01 -9.1733794960982095e+01 0 0 0
1529 44 2 0.0000000000000000e+00 -2.1063130832133577e+01 -4.1849927081418841e+01 -8.7602256574818412e+01 0 0 0
2527 73 2 0.0000000000000000e+00 -9.6096332899782524e+01 -3.1361585002201853e+01 -8.4050978350398793e+01 0 0 0
4753 136 4 0.0000000000000000e+00 -8.5439486289500081e+01 -2.4952505976303982e+01 -8.3678136238525155e+01 0 0 0
2072 60 2 0.0000000000000000e+00 -7.0577116758851403e+01 -2.2232517465158509e+01 -9.2647786919316317e+01 0 0 0
4752 136 4 0.0000000000000000e+00 -7.7993227982835961e+01 -2.9128622971430282e+01 -8.9349499772196850e+01 0 0 0
2073 60 2 0.0000000000000000e+00 -6.7124879273699392e+01 -2.4457503066064774e+01 -8.3511376203720161e+01 0 0 0
5546 159 4 0.0000000000000000e+00 -5.6556598162358469e+01 -2.6366411965896184e+01 -8.7517238577225854e+01 0 0 0
6314 181 4 0.0000000000000000e+00 -4.5535625576166552e+01 -2.4323479535101317e+01 -9.2109316817853966e+01 0 0 0
6312 181 4 0.0000000000000000e+00 -4.4446793542523089e+01 -2.3139553866232468e+01 -8.2371714808038888e+01 0 0 0
5125 147 4 0.0000000000000000e+00 -2.9051170152253032e+01 -2.7205770654205040e+01 -8.4200339359254897e+01 0 0 0
4755 136 4 0.0000000000000000e+00 -9.9798857010303749e+01 -1.6742399298235060e+01 -8.3963521582078101e+01 0 0 0