LAMMPS (5 Jun 2019)
Reading restart file ...
  restart file = 5 Jun 2019, LAMMPS = 5 Jun 2019
  restoring atom style full from restart
  orthogonal box = (-500 -500 -500) to (500 500 500)
  1 by 2 by 7 MPI processor grid
  restoring pair style lj/cut from restart
  restoring bond style hybrid from restart
  restoring angle style cosine from restart
  7000 atoms
  7290 bonds
  6600 angles
Finding 1-2 1-3 1-4 neighbors ...
  special bond factors lj:   0          1          1         
  special bond factors coul: 0          0          0         
  3 = max # of 1-2 neighbors
  4 = max # of 1-3 neighbors
  8 = max # of 1-4 neighbors
  16 = max # of special neighbors
  special bonds CPU = 0.00149954 secs
  read_restart CPU = 0.0331223 secs
Changing box ...
  orthogonal box = (-500 -500 -500) to (500 500 500)
  orthogonal box = (-500 -500 -500) to (500 500 500)
  orthogonal box = (-500 -500 -500) to (500 500 500)
Finding 1-2 1-3 1-4 neighbors ...
  special bond factors lj:   0          1          1         
  special bond factors coul: 0          0          0         
  3 = max # of 1-2 neighbors
  4 = max # of 1-3 neighbors
  8 = max # of 1-4 neighbors
  17120 = # of 1-3 neighbors before angle trim
  13200 = # of 1-3 neighbors after angle trim
  16 = max # of special neighbors
  special bonds CPU = 0.00128117 secs
1000 atoms in group rxnSites
Neighbor list info ...
  update every 1 steps, delay 1 steps, check yes
  max neighbors/atom: 2000, page size: 100000
  master list distance cutoff = 26.9
  ghost atom cutoff = 26.9
  binsize = 13.45, bins = 75 75 75
  2 neighbor lists, perpetual/occasional/extra = 1 1 0
  (1) pair lj/cut, perpetual
      attributes: half, newton on
      pair build: half/bin/newton
      stencil: half/bin/3d/newton
      bin: standard
  (2) fix bond/create/random, occasional, copy from (1)
      attributes: half, newton on
      pair build: copy
      stencil: none
      bin: none
Setting up Verlet run ...
  Unit style    : real
  Current step  : 300000000
  Time step     : 30
Per MPI rank memory allocation (min/avg/max) = 10.33 | 10.7 | 11.34 Mbytes
Step E_pair PotEng KinEng E_bond E_angle Temp Bonds 
300000000    -5023.524   -3066.1495    6451.2777    -2030.442    3987.8165     309.2256     7290 
301000000   -5056.1717   -3058.6206    6489.1365   -2108.7697    4106.3208    311.04026     7290 
302000000   -5111.5266   -3220.9756    6440.2549   -2136.6577    4027.2086    308.69725     7290 
303000000    -4979.951   -2986.8214    6397.0476   -2098.9396    4092.0692    306.62622     7290 
304000000   -5067.3238   -3159.5037    6530.5706   -2170.0886    4077.9087    313.02631     7290 
305000000   -5053.3164   -3207.3347     6305.372   -2099.8642    3945.8459    302.23198     7290 
306000000   -5065.2165   -3102.9208    6455.4649   -2091.1039    4053.3996     309.4263     7290 
307000000   -5012.3671   -2963.3191    6496.5005   -2062.2646    4111.3126    311.39324     7290 
308000000   -4978.5532   -3008.1468    6507.7154   -2142.5585    4112.9649     311.9308     7290 
309000000   -5080.6918   -3156.3568     6481.067   -2061.7857    3986.1207    310.65348     7290 
310000000   -5004.3435   -3000.3669    6496.5859   -2072.9421    4076.9187    311.39734     7290 
311000000   -5192.9586   -3236.8322    6412.1024   -2089.1892    4045.3157    307.34783     7290 
312000000   -5155.7472     -3230.18    6415.7119   -2092.8786    4018.4458    307.52084     7290 
313000000   -5148.5323   -3181.8173    6514.4581   -2140.8483    4107.5634    312.25399     7290 
314000000   -5018.3985   -3067.4285    6431.4401   -2089.3516    4040.3216    308.27474     7290 
315000000   -5071.6299   -3036.0456    6573.8962   -2049.6103    4085.1947    315.10301     7290 
316000000   -5078.1183   -3053.3796    6512.0025   -2036.8345    4061.5732    312.13629     7290 
317000000   -5074.0584   -3087.9205    6419.0403    -2068.453     4054.591    307.68038     7290 
318000000   -4984.1908   -3050.0935    6445.7982   -2129.9277     4064.025    308.96296     7290 
319000000   -5026.1486   -3049.9692    6410.0327   -2075.9147    4052.0942    307.24863     7290 
320000000   -5135.8029   -3139.4541    6458.0104   -2112.0444    4108.3932    309.54831     7290 
321000000   -5057.3102   -3115.0076    6544.2024   -2109.6914    4051.9939    313.67971     7290 
322000000   -5026.2196   -3148.6361    6397.1611   -2120.3648    3997.9483    306.63166     7290 
323000000   -4958.8505   -2951.7952    6475.8849   -2076.6422    4083.6975    310.40508     7290 
324000000   -5017.9129   -3196.4078    6395.2632   -2162.5276    3984.0327    306.54069     7290 
325000000   -5098.4686   -3131.1258    6430.6848   -2112.8318    4080.1746    308.23853     7290 
326000000   -5044.2557   -3154.2816    6555.2046    -2105.091    3995.0651    314.20707     7290 
327000000   -5019.8716    -3117.643    6465.2569   -2140.6307    4042.8593    309.89566     7290 
328000000   -5145.9707    -3171.968     6464.135   -2058.9787    4032.9814    309.84188     7290 
329000000   -4953.7958   -2969.2106      6370.41   -2115.9908     4100.576    305.34941     7290 
330000000   -4982.7849   -2984.1451    6627.3558   -2130.8765    4129.5163    317.66546     7290 
331000000   -4951.0173   -3033.3445    6432.3309   -2092.6685    4010.3414    308.31743     7290 
332000000   -5001.3922   -2960.8662    6450.4735   -2102.8108    4143.3368    309.18705     7290 
333000000   -5000.6794   -2884.6984     6385.533    -2057.486     4173.467    306.07429     7290 
334000000   -5084.1778   -3084.2652    6529.3299   -2102.5866    4102.4992    312.96684     7289 
335000000   -4988.9062   -3055.5081    6522.6106   -2099.6941    4033.0922    312.64476     7290 
336000000   -5062.5855   -3114.8065      6449.53   -2074.3685    4022.1474    309.14183     7290 
337000000   -5100.9247   -3089.8903    6495.3545   -2125.0008    4136.0352    311.33831     7290 
338000000   -5052.6345   -2954.1825    6491.2248   -1999.9754    4098.4275    311.14036     7290 
339000000   -5073.3195    -3082.786    6460.3968   -2054.0872    4044.6207     309.6627     7290 
340000000   -4980.8055   -3047.4124    6448.6601   -2130.7181    4064.1112    309.10013     7290 
341000000   -5014.8414   -2988.2164    6495.8895   -2080.1205    4106.7454    311.36395     7290 
342000000   -5090.4526   -3091.1448    6430.6639   -2111.2848    4110.5926    308.23753     7290 
343000000   -5055.9216   -3185.0647    6524.8755   -2131.1675    4002.0243    312.75332     7290 
344000000   -5010.5313   -3124.7081    6476.4295   -2142.1205    4027.9437    310.43119     7290 
345000000   -5160.0593   -3201.2947    6480.7214   -2095.6634     4054.428    310.63691     7290 
346000000   -5077.6969   -3121.5444    6515.2319   -2104.8081    4060.9606    312.29108     7290 
347000000   -5085.2847   -3112.5129    6496.7547   -2088.5942    4061.3659    311.40542     7290 
348000000   -5003.2772   -2945.2728    6439.1861   -2030.4647    4088.4691    308.64602     7290 
349000000   -5115.5301    -3143.486    6415.3044    -2123.254    4095.2981    307.50131     7290 
350000000   -5100.8663   -3037.9449     6473.902    -2029.591    4092.5124    310.31004     7290 
351000000   -5029.5419   -3069.0525    6403.0883   -2119.2998    4079.7892    306.91576     7290 
352000000   -5097.2566   -3159.4601    6388.4499   -2101.5204    4039.3169    306.21411     7290 
353000000   -5043.7185   -3083.2177    6476.2161   -2110.3701    4070.8708    310.42096     7290 
354000000   -5040.4122   -3144.2365    6480.9025   -2153.4427    4049.6184    310.64559     7290 
355000000   -5109.8066   -3116.6798    6512.1917   -2095.7948    4088.9216    312.14536     7290 
356000000   -5016.9848   -2992.9981     6417.886   -2025.7377    4049.7244    307.62505     7290 
357000000   -5084.6764   -3218.9327    6595.1578   -2136.5179    4002.2616    316.12213     7290 
358000000   -5115.3955   -3188.8604    6465.3901   -2101.8538    4028.3889    309.90204     7290 
359000000   -4994.4382    -3055.995    6469.7556   -2109.4476    4047.8908    310.11129     7290 
360000000   -5037.6669   -3077.3492    6443.1442   -2061.2799    4021.5976    308.83574     7290 
361000000   -5021.6289   -3043.2532    6410.8181   -2103.3348    4081.7106    307.28627     7290 
362000000   -5154.1673   -3188.8798    6397.2967   -2113.1158    4078.4033    306.63816     7290 
363000000   -5045.4125   -3153.9284    6333.9006   -2053.5972    3945.0814    303.59943     7290 
364000000   -5087.8633   -3115.4051    6388.6217   -2114.3406    4086.7988    306.22234     7290 
365000000   -5022.3453   -3084.2562    6507.0887   -2071.2384    4009.3275    311.90076     7290 
366000000   -4998.1016    -3058.076    6433.3788   -2117.1991    4057.2247    308.36766     7290 
367000000    -5083.862    -3137.368    6548.7695   -2121.5445    4068.0385    313.89862     7290 
368000000   -5154.1294   -3243.9522    6382.5747   -2135.0417    4045.2189     305.9325     7291 
369000000   -5123.0163   -3109.6708    6507.9777   -2055.2856    4068.6311    311.94337     7291 
370000000   -5077.4706   -3207.3602    6516.7262    -2130.603    4000.7134    312.36271     7291 
371000000   -5161.2764   -3212.2611    6470.9382   -2098.5266    4047.5419    310.16797     7291 
372000000   -5087.2863   -3191.2229    6418.1975   -2150.7944    4046.8577    307.63999     7291 
373000000   -5089.2024   -3248.9158    6487.4563   -2174.5738    4014.8604    310.95973     7291 
374000000   -5056.6475    -3155.761    6479.1913   -2065.5437    3966.4302    310.56357     7291 
375000000   -5147.3704   -3242.2792    6449.7948   -2106.9978     4012.089    309.15452     7291 
376000000   -5143.9617   -3267.5943    6482.9799   -2114.7177    3991.0852    310.74516     7291 
377000000   -4962.7114   -3034.6438    6430.3998   -2063.4363    3991.5039    308.22487     7291 
378000000   -5071.2559   -3165.6613    6448.1004   -2132.3021    4037.8967    309.07331     7291 
379000000   -5142.2779   -3160.2679    6517.7498   -2119.7834    4101.7935    312.41177     7291 
380000000   -5041.8744   -3082.0501    6543.4757    -2115.003    4074.8272    313.64488     7291 
381000000   -4979.7932   -2985.2785    6500.8585   -2104.4983     4099.013    311.60213     7291 
382000000   -5035.0329    -3114.406    6441.6152   -2140.2059    4060.8328    308.76245     7291 
383000000    -5005.398   -3009.9252    6476.3631   -2105.5949    4101.0678    310.42801     7291 
384000000   -5026.0088   -2949.5241     6438.092   -2069.2509    4145.7356    308.59358     7291 
385000000   -4969.7418   -2918.9763    6387.8612   -2051.3772    4102.1427    306.18589     7291 
386000000   -5079.3034   -3115.1692    6519.9397   -2107.3652    4071.4994    312.51674     7291 
387000000   -5199.0571   -3226.2331    6448.1986   -2093.9294    4066.7534    309.07801     7291 
388000000   -5119.1245   -3135.0321    6549.7615   -2139.6013    4123.6937    313.94617     7291 
389000000    -5112.656   -3222.5348    6431.8755   -2100.8394    3990.9606    308.29561     7291 
390000000   -5069.9968   -3215.1601    6454.0596   -2147.5125    4002.3492    309.35894     7291 
391000000   -5099.2061   -3185.8559     6454.073    -2103.889    4017.2392    309.35959     7291 
392000000   -5109.4601   -3181.6726    6430.4466   -2113.7163    4041.5038    308.22712     7291 
393000000   -5024.1294   -3153.4211    6454.5679   -2103.5844    3974.2926    309.38331     7291 
394000000   -5164.0243   -3279.7362    6456.8306   -2140.9458    4025.2339    309.49177     7291 
395000000   -5058.4533   -3124.6677    6521.1506   -2087.9045    4021.6901    312.57478     7292 
396000000   -5035.2255   -3001.9052    6523.6946   -2079.2253    4112.5456    312.69672     7292 
397000000   -5043.4669   -3125.6195    6513.6436   -2109.6316     4027.479    312.21495     7292 
398000000   -5046.4203   -3139.6644    6427.1049   -2120.6375    4027.3935    308.06694     7292 
399000000   -5117.5751   -3287.4343    6371.1099   -2191.0925    4021.2333    305.38296     7292 
400000000    -5074.868   -3239.4451    6622.5199    -2141.559    3976.9818    317.43366     7292 
Loop time of 23754.2 on 14 procs for 100000000 steps with 7000 atoms

Performance: 10911.756 ns/day, 0.002 hours/ns, 4209.782 timesteps/s
99.6% CPU use with 14 MPI tasks x no OpenMP threads

MPI task timing breakdown:
Section |  min time  |  avg time  |  max time  |%varavg| %total
---------------------------------------------------------------
Pair    | 5963.1     | 7121.5     | 7954.4     | 613.2 | 29.98
Bond    | 1075.7     | 1101.5     | 1127.6     |  50.1 |  4.64
Neigh   | 4312.9     | 4340       | 4378.4     |  30.5 | 18.27
Comm    | 5628.2     | 6520.2     | 8032.4     | 792.9 | 27.45
Output  | 0.57738    | 0.57748    | 0.57759    |   0.0 |  0.00
Modify  | 3741.6     | 3800.7     | 3863.8     |  65.3 | 16.00
Other   |            | 869.7      |            |       |  3.66

Nlocal:    500 ave 529 max 471 min
Histogram: 1 0 1 2 3 1 5 0 0 1
Nghost:    812.071 ave 1008 max 573 min
Histogram: 2 1 1 1 1 2 0 1 2 3
Neighs:    9770.43 ave 10734 max 7788 min
Histogram: 1 0 1 0 1 2 1 2 2 4

Total # of neighbors = 136786
Ave neighs/atom = 19.5409
Ave special neighs/atom = 7.20457
Neighbor list builds = 6122837
Dangerous builds = 0
System init for write_restart ...
System init for write_data ...
Total wall time: 6:35:54
