LAMMPS (5 Jun 2019)
Reading restart file ...
  restart file = 5 Jun 2019, LAMMPS = 5 Jun 2019
  restoring atom style full from restart
  orthogonal box = (-500 -500 -500) to (500 500 500)
  1 by 2 by 7 MPI processor grid
  restoring pair style lj/cut from restart
  restoring bond style hybrid from restart
  restoring angle style cosine from restart
  7000 atoms
  7290 bonds
  6600 angles
Finding 1-2 1-3 1-4 neighbors ...
  special bond factors lj:   0          1          1         
  special bond factors coul: 0          0          0         
  3 = max # of 1-2 neighbors
  4 = max # of 1-3 neighbors
  8 = max # of 1-4 neighbors
  16 = max # of special neighbors
  special bonds CPU = 0.176333 secs
  read_restart CPU = 0.48174 secs
Changing box ...
  orthogonal box = (-500 -500 -500) to (500 500 500)
  orthogonal box = (-500 -500 -500) to (500 500 500)
  orthogonal box = (-500 -500 -500) to (500 500 500)
Finding 1-2 1-3 1-4 neighbors ...
  special bond factors lj:   0          1          1         
  special bond factors coul: 0          0          0         
  3 = max # of 1-2 neighbors
  4 = max # of 1-3 neighbors
  8 = max # of 1-4 neighbors
  17120 = # of 1-3 neighbors before angle trim
  13200 = # of 1-3 neighbors after angle trim
  16 = max # of special neighbors
  special bonds CPU = 0.00242474 secs
1000 atoms in group rxnSites
Neighbor list info ...
  update every 1 steps, delay 1 steps, check yes
  max neighbors/atom: 2000, page size: 100000
  master list distance cutoff = 26.9
  ghost atom cutoff = 26.9
  binsize = 13.45, bins = 75 75 75
  2 neighbor lists, perpetual/occasional/extra = 1 1 0
  (1) pair lj/cut, perpetual
      attributes: half, newton on
      pair build: half/bin/newton
      stencil: half/bin/3d/newton
      bin: standard
  (2) fix bond/create/random, occasional, copy from (1)
      attributes: half, newton on
      pair build: copy
      stencil: none
      bin: none
Setting up Verlet run ...
  Unit style    : real
  Current step  : 300000000
  Time step     : 30
Per MPI rank memory allocation (min/avg/max) = 10.33 | 10.7 | 11.34 Mbytes
Step E_pair PotEng KinEng E_bond E_angle Temp Bonds 
300000000    -5023.524   -3066.1495    6451.2777    -2030.442    3987.8165     309.2256     7290 
301000000   -5082.8274   -3028.2302    6378.6438   -2058.4564    4113.0536    305.74408     7290 
302000000   -5148.9636   -3136.3102    6347.7923     -2120.36    4133.0134    304.26529     7290 
303000000   -5066.7792   -3018.9954    6533.0313    -2041.688    4089.4719    313.14425     7290 
304000000   -5011.5852   -3042.8142    6454.3518     -2086.58    4055.3511    309.37295     7290 
305000000   -5072.2101   -3096.9921    6456.0882   -2142.0417    4117.2597    309.45618     7290 
306000000   -5101.3122   -3153.7919    6439.7804   -2098.5492    4046.0695    308.67451     7290 
307000000   -5125.2395   -3125.4848    6463.6187   -2040.6777    4040.4325    309.81714     7290 
308000000   -4987.6047   -3073.8916    6448.1395    -2156.208     4069.921    309.07518     7290 
309000000   -4904.5892   -2945.3183    6395.5932   -2095.7783    4055.0493     306.5565     7290 
310000000    -5026.432   -3046.5384    6440.9599   -2141.8369    4121.7305    308.73105     7290 
311000000   -5098.1381   -3202.5168    6389.1998   -2154.2834    4049.9046    306.25005     7290 
312000000   -5089.2653   -3139.2173    6460.6703   -2084.5991    4034.6471    309.67581     7290 
313000000   -4990.4888    -3028.407    6469.5642   -2074.4635    4036.5454    310.10212     7290 
314000000   -5068.3567   -3042.8441    6537.6905   -2039.7629    4065.2755    313.36758     7289 
315000000   -5011.3403   -3056.6583    6511.2398   -2046.5411    4001.2231    312.09973     7289 
316000000   -5026.1769    -3054.875    6521.0977   -2067.2875    4038.5894    312.57224     7288 
317000000   -4995.1929   -3104.3448    6497.5046    -2129.038    4019.8861    311.44137     7289 
318000000   -5088.7564   -3202.9299    6401.4996   -2138.2454    4024.0719    306.83961     7289 
319000000   -5125.7037   -3157.9442    6438.8132   -2084.2635     4052.023    308.62815     7289 
320000000   -5019.7527   -3077.4667    6399.3683   -2071.1151    4013.4011    306.73746     7290 
321000000   -5101.1567   -3106.7967    6438.6805   -2018.9884    4013.3483    308.62178     7290 
322000000   -4975.2065   -2998.0272    6471.8966   -2048.3114    4025.4906    310.21391     7290 
323000000   -5020.4371   -3085.2509     6439.469   -2128.0053    4063.1915    308.65958     7290 
324000000   -5091.3738   -3096.5157    6532.8102   -2125.4022    4120.2603    313.13365     7290 
325000000   -5052.8565   -3031.0851    6461.1945   -2041.1904    4062.9618    309.70094     7290 
326000000   -5085.7003   -3051.4634    6466.1471   -2065.1353    4099.3723    309.93833     7290 
327000000   -5024.7022   -3085.8037    6465.8036    -2153.762    4092.6606    309.92186     7290 
328000000   -5043.2527   -3226.8256     6401.578   -2193.8396    4010.2667    306.84337     7290 
329000000   -5093.4065   -3037.7221    6490.1033   -1985.8836     4041.568    311.08661     7290 
330000000   -5042.8037   -3092.0214    6492.4708   -2133.5566    4084.3389    311.20009     7290 
331000000   -5163.0855   -3236.4608    6410.2224   -2137.4142    4064.0389    307.25772     7290 
332000000   -5191.6524   -3189.3777    6570.7892   -2122.3984    4124.6731    314.95408     7290 
333000000    -5089.431   -3131.7381    6529.5985   -2102.5461     4060.239    312.97971     7290 
334000000   -5082.7461   -3172.9281    6535.0156    -2057.985     3967.803    313.23937     7290 
335000000   -5138.1536    -3250.391    6448.4562   -2137.0205     4024.783    309.09036     7290 
336000000   -5049.2763     -3016.69    6461.5088   -2088.3811    4120.9674      309.716     7290 
337000000    -5036.516   -3151.3693    6285.2326     -2131.61    4016.7566    301.26665     7290 
338000000   -5064.9346   -3134.7537    6481.5193   -2040.3038    3970.4847    310.67515     7290 
339000000   -5119.0541   -3307.0835    6506.9513   -2144.2789    3956.2494    311.89417     7290 
340000000   -5019.2912   -3039.5991    6455.9494    -2047.954    4027.6461    309.44952     7290 
341000000   -5091.4609    -3177.124    6559.0994   -2112.5787    4026.9156    314.39376     7290 
342000000   -5103.1577   -3159.4878    6554.6782   -2049.1571    3992.8269    314.18184     7290 
343000000   -5005.5346   -3060.0758    6357.6011   -2088.9814    4034.4402    304.73545     7290 
344000000    -5135.224   -3230.7082    6389.8104   -2126.5201    4031.0359    306.27932     7290 
345000000   -5171.3171   -3247.9414     6488.305    -2107.761    4031.1367    311.00041     7290 
346000000    -5081.675   -3003.6464    6405.9406   -1994.5482    4072.5768    307.05248     7290 
347000000    -5121.484   -3238.5934    6521.5862   -2155.9474     4038.838    312.59566     7290 
348000000   -5126.7228    -3191.755    6490.1617   -2162.1117    4097.0795    311.08941     7290 
349000000   -5082.5795   -3139.0778     6661.392    -2105.453    4048.9547     319.2969     7290 
350000000   -5091.0978   -3050.0983    6314.5387   -2077.1014     4118.101    302.67136     7290 
351000000   -5043.7588   -3061.2297    6497.4704   -2089.4579    4071.9869    311.43973     7290 
352000000    -5077.798   -3008.7388     6581.969   -2058.4835    4127.5427    315.48995     7290 
353000000   -5034.3876   -3083.6588    6500.8848   -2123.0602    4073.7889    311.60339     7290 
354000000   -5079.9651   -3214.8106    6448.8476   -2138.9046    4004.0591    309.10912     7290 
355000000   -5112.7017   -3171.9766    6536.4991   -2099.5688    4040.2939    313.31047     7290 
356000000   -5073.8502   -3067.1259    6413.1571    -2080.509    4087.2333    307.39839     7290 
357000000   -4984.9345   -3072.4921    6527.8357   -2078.3676      3990.81    312.89521     7290 
358000000   -4993.7623   -3119.8324    6456.4298   -2102.8303    3976.7602    309.47255     7290 
359000000    -5097.156   -3240.4425    6391.3508   -2127.9205     3984.634    306.35316     7290 
360000000   -4931.7957   -3004.5495    6442.3483   -2093.1214    4020.3676    308.79759     7290 
361000000   -5079.6599   -3205.7941    6444.2815   -2136.4933    4010.3591    308.89025     7290 
362000000   -5124.7505   -3146.6618    6465.3231   -2062.1242    4040.2129    309.89883     7290 
363000000      -5022.7   -3095.7027     6564.398   -2093.5492    4020.5465    314.64774     7290 
364000000   -4993.0798   -3085.4937    6439.4621   -2082.2273    3989.8135    308.65925     7290 
365000000   -5052.3945   -3255.0083    6505.0226   -2192.7666    3990.1529    311.80173     7290 
366000000   -5013.2414   -3149.0858    6339.7947   -2123.2444       3987.4    303.88195     7290 
367000000   -4984.3921   -3076.5537    6552.8995   -2089.3546    3997.1929    314.09658     7290 
368000000    -5054.927   -3140.8742    6503.1548   -2158.2976    4072.3504     311.7122     7290 
369000000   -5120.4885   -3140.6235    6343.1525   -2102.4007    4082.2657     304.0429     7290 
370000000   -5068.2221   -3238.5492    6525.6016   -2158.4333    3988.1062    312.78813     7290 
371000000   -5153.8844   -3208.5616    6406.8771   -2082.5073    4027.8302    307.09737     7290 
372000000   -5103.3855   -3301.4793    6456.4243   -2154.5604    3956.4667    309.47229     7290 
373000000   -5038.3292   -3129.3527    6450.9121   -2068.8587    3977.8353    309.20808     7290 
374000000   -5113.1388   -3212.1669    6475.3974    -2147.536    4048.5078    310.38172     7290 
375000000   -5057.1428   -3078.5179    6506.7327   -2070.4758    4049.1007     311.8837     7290 
376000000   -4979.7933   -3088.1481    6475.4102   -2119.0445    4010.6897    310.38233     7290 
377000000   -5069.0299   -3056.5163    6401.4956   -2076.8635    4089.3771    306.83942     7290 
378000000   -5076.8735   -3106.7582    6465.1357   -2130.0684    4100.1836    309.88985     7290 
379000000   -5143.5206   -3106.7154    6470.2808   -2093.5054    4130.3106    310.13647     7290 
380000000   -5091.3121   -3095.5358    6570.8961   -2076.8932    4072.6695     314.9592     7290 
381000000   -5106.2722   -3163.5771    6570.6119   -2102.8094    4045.5045    314.94558     7290 
382000000   -4974.5845   -2986.2905    6417.5979    -2080.723     4069.017    307.61125     7290 
383000000   -4950.9212   -3090.2089    6415.6635   -2127.3785    3988.0909    307.51852     7290 
384000000   -5090.2827   -3085.4509    6406.8032   -2066.5994    4071.4313    307.09383     7290 
385000000   -5022.4199   -3139.9947    6476.9996   -2171.1625    4053.5877    310.45851     7290 
386000000    -5067.534   -3083.0249    6521.4595    -2085.847    4070.3561    312.58959     7290 
387000000    -5100.056   -3169.2961    6348.6737   -2131.4717    4062.2317    304.30754     7290 
388000000   -4955.3406   -3038.5446    6485.6448   -2164.8752    4081.6713     310.8729     7290 
389000000   -5106.7664   -3131.9624    6517.0131   -2093.1257    4067.9297    312.37646     7290 
390000000   -5086.8554    -3101.826    6565.9807   -2096.9483    4081.9777     314.7236     7290 
391000000   -5055.2379    -3091.144    6488.6591   -2073.6761      4037.77    311.01738     7290 
392000000   -5026.5902   -3102.8642    6436.5223   -2136.3312    4060.0571    308.51834     7290 
393000000   -5015.9779   -3112.0572    6490.5681   -2104.1732     4008.094    311.10889     7290 
394000000   -5077.7256   -3164.9569    6393.7757   -2116.6951    4029.4638    306.46939     7290 
395000000   -5150.0015   -3258.7002    6399.0109   -2126.1592    4017.4605    306.72032     7290 
396000000   -5074.4562   -3120.4981    6424.8323   -2148.4974    4102.4554    307.95801     7290 
397000000   -5111.8291   -3121.1747    6387.0369   -2036.5689    4027.2233    306.14638     7290 
398000000   -5083.3847   -3109.0753    6471.5594   -2106.1355    4080.4449    310.19775     7290 
399000000   -5076.0161   -3093.2811    6444.3416   -2092.8246    4075.5596    308.89314     7290 
400000000   -5094.4731   -3084.7596    6468.7509   -2093.9007    4103.6143    310.06313     7290 
Loop time of 27900.4 on 14 procs for 100000000 steps with 7000 atoms

Performance: 9290.178 ns/day, 0.003 hours/ns, 3584.174 timesteps/s
99.6% CPU use with 14 MPI tasks x no OpenMP threads

MPI task timing breakdown:
Section |  min time  |  avg time  |  max time  |%varavg| %total
---------------------------------------------------------------
Pair    | 6044.6     | 7271.6     | 8112.5     | 645.6 | 26.06
Bond    | 1094.2     | 1119.6     | 1152.7     |  51.4 |  4.01
Neigh   | 4422.4     | 4464.7     | 4520.7     |  46.6 | 16.00
Comm    | 7623.6     | 8779.4     | 10683      | 887.9 | 31.47
Output  | 0.51013    | 0.51038    | 0.51062    |   0.0 |  0.00
Modify  | 4462       | 4523.3     | 4572.3     |  50.9 | 16.21
Other   |            | 1741       |            |       |  6.24

Nlocal:    500 ave 553 max 449 min
Histogram: 2 1 2 0 1 3 2 1 1 1
Nghost:    814.5 ave 1047 max 636 min
Histogram: 3 2 2 1 0 0 0 3 2 1
Neighs:    9831.86 ave 11267 max 7327 min
Histogram: 1 0 0 0 2 4 1 2 2 2

Total # of neighbors = 137646
Ave neighs/atom = 19.6637
Ave special neighs/atom = 7.17371
Neighbor list builds = 6122513
Dangerous builds = 0
System init for write_restart ...
System init for write_data ...
Total wall time: 7:45:01
