LAMMPS (5 Jun 2019)
Reading restart file ...
  restart file = 5 Jun 2019, LAMMPS = 5 Jun 2019
  restoring atom style full from restart
  orthogonal box = (-500 -500 -500) to (500 500 500)
  1 by 2 by 7 MPI processor grid
  restoring pair style lj/cut from restart
  restoring bond style hybrid from restart
  restoring angle style cosine from restart
  7000 atoms
  7290 bonds
  6600 angles
Finding 1-2 1-3 1-4 neighbors ...
  special bond factors lj:   0          1          1         
  special bond factors coul: 0          0          0         
  3 = max # of 1-2 neighbors
  4 = max # of 1-3 neighbors
  8 = max # of 1-4 neighbors
  16 = max # of special neighbors
  special bonds CPU = 0.0014381 secs
  read_restart CPU = 0.0332932 secs
Changing box ...
  orthogonal box = (-500 -500 -500) to (500 500 500)
  orthogonal box = (-500 -500 -500) to (500 500 500)
  orthogonal box = (-500 -500 -500) to (500 500 500)
Finding 1-2 1-3 1-4 neighbors ...
  special bond factors lj:   0          1          1         
  special bond factors coul: 0          0          0         
  3 = max # of 1-2 neighbors
  4 = max # of 1-3 neighbors
  8 = max # of 1-4 neighbors
  17120 = # of 1-3 neighbors before angle trim
  13200 = # of 1-3 neighbors after angle trim
  16 = max # of special neighbors
  special bonds CPU = 0.0012892 secs
1000 atoms in group rxnSites
Neighbor list info ...
  update every 1 steps, delay 1 steps, check yes
  max neighbors/atom: 2000, page size: 100000
  master list distance cutoff = 26.9
  ghost atom cutoff = 26.9
  binsize = 13.45, bins = 75 75 75
  2 neighbor lists, perpetual/occasional/extra = 1 1 0
  (1) pair lj/cut, perpetual
      attributes: half, newton on
      pair build: half/bin/newton
      stencil: half/bin/3d/newton
      bin: standard
  (2) fix bond/create/random, occasional, copy from (1)
      attributes: half, newton on
      pair build: copy
      stencil: none
      bin: none
Setting up Verlet run ...
  Unit style    : real
  Current step  : 300000000
  Time step     : 30
Per MPI rank memory allocation (min/avg/max) = 10.33 | 10.7 | 11.34 Mbytes
Step E_pair PotEng KinEng E_bond E_angle Temp Bonds 
300000000    -5023.524   -3066.1495    6451.2777    -2030.442    3987.8165     309.2256     7290 
301000000   -5060.7086   -3167.3506    6511.2766    -2116.519     4009.877     312.1015     7290 
302000000   -5076.8895   -3122.5696    6484.8566   -2119.1079    4073.4278    310.83512     7290 
303000000   -5057.3939   -3177.0237    6487.9714   -2123.1769    4003.5471    310.98442     7290 
304000000   -5067.2581    -3214.497    6410.9967   -2174.7653    4027.5264    307.29483     7290 
305000000   -5105.6591   -3212.1492    6458.0029   -2126.7751     4020.285    309.54796     7290 
306000000   -5033.0766   -3107.3899    6477.2238   -2055.0102    3980.6968    310.46926     7290 
307000000   -5042.2855   -3104.8012    6481.7286   -2104.9423    4042.4266    310.68519     7290 
308000000   -5102.3018   -3184.7649    6389.8467   -2145.9752    4063.5121    306.28106     7290 
309000000   -5031.5677   -3071.9007     6424.765   -2070.6011    4030.2681    307.95478     7290 
310000000   -5017.2534   -3022.3743    6490.8456   -2089.9628    4084.8419    311.12219     7290 
311000000     -5096.24   -3200.1921    6551.1733   -2092.6143    3988.6623    314.01384     7290 
312000000   -5069.6356   -3260.8594    6450.8932   -2137.9048     3946.681    309.20717     7290 
313000000   -4987.0334   -3121.1255    6523.1535   -2138.9189    4004.8267    312.67078     7290 
314000000   -5174.5291   -3233.6028     6499.733   -2098.5809    4039.5072    311.54818     7290 
315000000   -4906.3324   -3035.5828    6516.1668   -2121.5977    3992.3474    312.33589     7290 
316000000    -5039.354   -3056.8684    6400.1353   -2112.2231    4094.7087    306.77422     7290 
317000000    -5155.471    -3191.139    6492.0531   -2092.8412    4057.1733    311.18007     7290 
318000000   -5137.0093   -3185.9283    6513.8635    -2140.377     4091.458    312.22549     7289 
319000000   -5099.3245   -3051.4936      6477.29   -2061.7781    4109.6089    310.47244     7289 
320000000   -5084.8741   -3172.4897    6440.6784   -2105.2696    4017.6539    308.71755     7289 
321000000   -5097.2211   -3144.9126    6442.7304    -2059.672    4011.9805    308.81591     7289 
322000000   -5069.1816   -3063.0895    6546.6963   -2075.6909    4081.7829    313.79925     7289 
323000000   -5031.3438   -3016.8957    6387.1998   -2106.6893    4121.1374    306.15419     7289 
324000000   -5137.5176   -3184.5445    6423.6012   -2084.5544    4037.5275      307.899     7289 
325000000   -5062.7786   -3172.4786    6505.8105    -2124.158     4014.458    311.83949     7289 
326000000   -4958.1303    -2941.656    6557.7079   -2029.4656    4045.9399    314.32706     7289 
327000000   -5108.9815   -3125.3125    6317.1208   -2093.5108    4077.1798    302.79513     7289 
328000000      -5061.9   -3120.7197    6566.3288   -2074.0729    4015.2532    314.74028     7289 
329000000   -5102.1566   -3163.3564    6506.4763   -2085.0156    4023.8159    311.87141     7289 
330000000   -5027.3835   -3031.3053     6453.367   -2090.0533    4086.1315    309.32574     7289 
331000000   -5016.7953   -3047.0559     6482.265   -2104.7244    4074.4638     310.7109     7289 
332000000   -5111.3103   -3134.7664    6417.9763   -2055.7899    4032.3338    307.62938     7289 
333000000    -5040.885   -3054.0982    6371.7489   -2077.2542     4064.041    305.41359     7289 
334000000   -5083.9471   -3183.4265    6481.4804   -2112.1032    4012.6238    310.67329     7289 
335000000   -5044.6354   -3131.8801    6543.5136    -2102.735    4015.4903     313.6467     7289 
336000000   -5084.4718   -3059.0271    6520.7162   -2076.2548    4101.6996    312.55396     7289 
337000000   -5136.3013   -3130.4312    6490.7374   -2096.9221    4102.7922      311.117     7289 
338000000   -5033.2986   -3089.7611    6371.9787   -2074.8033    4018.3408     305.4246     7289 
339000000   -5111.0727    -3174.563    6454.9173   -2115.4428    4051.9526    309.40006     7289 
340000000   -5166.9889     -3209.87    6291.2677   -2121.3974    4078.5162    301.55593     7289 
341000000   -5140.5362   -3020.2316    6529.4805   -2077.7252    4198.0298    312.97405     7289 
342000000   -5129.6998   -3195.8718    6490.8992   -2131.2901    4065.1181    311.12476     7289 
343000000   -5028.9267   -3199.5688     6446.659   -2159.7334    3989.0913    309.00422     7289 
344000000   -5004.6901    -3128.763    6514.1844   -2132.8982    4008.8253    312.24087     7289 
345000000   -5064.3815   -3053.7346    6474.0122   -2074.2392    4084.8861    310.31532     7290 
346000000   -5193.8826    -3184.201    6520.6097   -2059.6079    4069.2895    312.54885     7290 
347000000   -5142.3595   -3157.5793    6454.7741   -2126.9245    4111.7047    309.39319     7290 
348000000   -5020.1866   -3028.3062    6301.3204   -2080.3872    4072.2675    302.03778     7290 
349000000    -5054.834   -3038.9942    6603.3014   -2080.6024    4096.4422    316.51247     7290 
350000000   -5060.9646   -3066.5496    6506.2912   -2094.0719    4088.4869    311.86253     7290 
351000000   -5063.8246   -3232.4223    6449.0316   -2135.8378    3967.2401    309.11794     7290 
352000000     -5037.58   -3102.7443    6517.1127   -2120.7909    4055.6266    312.38123     7290 
353000000   -5081.3656   -3139.8441    6476.5371   -2084.7273    4026.2488    310.43634     7290 
354000000   -5150.1882   -3094.8781    6517.7345   -2141.2478    4196.5579    312.41104     7290 
355000000   -5107.4485   -3038.5277    6609.8482   -2020.9798    4089.9006    316.82628     7290 
356000000   -5060.6174   -3105.4576    6446.5933   -2089.1444    4044.3042    309.00107     7290 
357000000   -5104.4841   -3224.1783    6530.9317    -2114.294    3994.5998    313.04361     7290 
358000000   -5046.6715   -3044.4667      6517.64   -2025.3416    4027.5464    312.40651     7290 
359000000   -5071.8012   -3150.4339    6619.3259   -2085.5294    4006.8966    317.28056     7291 
360000000   -5081.5253   -3170.9685    6600.9649    -2168.351    4078.9078    316.40048     7291 
361000000   -4998.8651   -3039.9307    6302.6397   -2068.3316     4027.266    302.10101     7291 
362000000   -5010.6577   -2927.4636    6540.1797   -2071.7501    4154.9442    313.48689     7291 
363000000   -5034.7851   -3109.9005    6589.8271   -2153.0759    4077.9605    315.86661     7291 
364000000   -5028.9256   -3116.2184     6485.243   -2186.9335    4099.6407    310.85364     7291 
365000000   -5095.5999   -3189.8338    6443.1388   -2121.1878    4026.9539    308.83548     7291 
366000000   -5040.0991   -3086.0411     6420.623   -2172.5663    4126.6244    307.75625     7291 
367000000   -4968.8956   -3102.1148    6463.7803   -2168.6945    4035.4753    309.82488     7291 
368000000   -5124.2239   -3227.6112    6386.8426   -2086.0363    3982.6491    306.13707     7291 
369000000   -5042.5927    -3064.763    6424.9219   -2108.5472    4086.3769     307.9623     7291 
370000000   -5038.1348   -3077.9166    6526.8556   -2129.5621    4089.7803    312.84824     7290 
371000000   -5045.8342   -3068.6508    6541.7905   -2086.8288    4064.0122     313.5641     7290 
372000000   -5036.9241   -3098.2301    6534.1941   -2119.0952    4057.7892    313.19999     7290 
373000000    -4939.256   -3050.8866    6404.5724   -2133.1657    4021.5352     306.9869     7290 
374000000   -5061.8977   -3111.7394    6431.9701    -2100.091    4050.2493    308.30014     7290 
375000000   -5040.9401   -3073.6628    6437.1264    -2079.753    4047.0303     308.5473     7289 
376000000   -5080.7651   -3174.0294    6434.3755   -2127.1377    4033.8734    308.41544     7289 
377000000   -5067.5081   -3051.9137    6545.7375   -2060.6545     4076.249    313.75329     7289 
378000000   -5071.2759   -3130.5087    6337.2366    -2078.056    4018.8232    303.75933     7290 
379000000   -5077.4197   -3149.9493    6521.4409   -2121.2283    4048.6987    312.58869     7290 
380000000   -5059.9722   -3117.4306    6543.7249   -2077.7089    4020.2505    313.65682     7291 
381000000   -5094.2038   -3115.1038    6462.8999   -2139.9464    4119.0464    309.78268     7291 
382000000   -5055.6254    -3118.837    6517.5859   -2093.7341    4030.5225    312.40392     7291 
383000000   -5071.4032   -3039.5491    6559.0067   -2044.1366    4075.9907    314.38931     7291 
384000000   -5035.9888   -3078.5409    6453.9614   -2125.8149    4083.2629    309.35424     7291 
385000000   -5103.4193   -3250.0685    6477.1625   -2186.5775    4039.9282    310.46632     7291 
386000000   -5153.5404   -3190.5551    6495.5332   -2063.2979    4026.2832    311.34688     7291 
387000000   -4997.2503   -3041.7532    6526.7148   -2047.2131    4002.7102    312.84149     7291 
388000000   -5106.8011   -3062.3857    6431.2039   -2036.6944    4081.1098    308.26341     7291 
389000000   -5080.0796   -3096.6777    6455.7266   -2105.4175    4088.8193    309.43885     7291 
390000000   -4984.1752   -3046.8955    6468.8365   -2081.5644    4018.8442    310.06724     7291 
391000000   -5005.1525    -3099.579    6336.8298   -2096.4567    4002.0302    303.73983     7291 
392000000    -5104.081   -3122.7125    6425.2725   -2052.9138    4034.2822    307.97911     7291 
393000000   -5049.1946   -3016.7251    6400.5315   -2011.0765    4043.5459    306.79321     7291 
394000000   -5100.3418   -3182.6432    6486.3651   -2120.7194     4038.418    310.90742     7291 
395000000   -5082.3057   -3223.7391    6453.4599   -2165.7759    4024.3424     309.3302     7291 
396000000    -5096.523   -3181.6023    6454.3205   -2099.4037    4014.3244    309.37145     7291 
397000000    -5124.158   -3176.8583    6467.8011   -2067.9665    4015.2663    310.01761     7291 
398000000    -5106.144   -3077.4518    6509.6763   -2097.0026    4125.6948    312.02479     7291 
399000000   -5046.2767   -3099.3707    6501.7418     -2092.92    4039.8259    311.64447     7290 
400000000   -5051.1656   -3118.6663    6415.8206   -2123.4957     4055.995    307.52605     7291 
Loop time of 23200 on 14 procs for 100000000 steps with 7000 atoms

Performance: 11172.397 ns/day, 0.002 hours/ns, 4310.339 timesteps/s
99.6% CPU use with 14 MPI tasks x no OpenMP threads

MPI task timing breakdown:
Section |  min time  |  avg time  |  max time  |%varavg| %total
---------------------------------------------------------------
Pair    | 5937.8     | 7021.7     | 7939.2     | 610.4 | 30.27
Bond    | 1067.7     | 1082.6     | 1100.5     |  27.4 |  4.67
Neigh   | 4205.7     | 4230.6     | 4263.9     |  28.6 | 18.24
Comm    | 5341.1     | 6323.7     | 7706.8     | 783.2 | 27.26
Output  | 0.43636    | 0.43653    | 0.43669    |   0.0 |  0.00
Modify  | 3693.7     | 3711.4     | 3731.2     |  16.1 | 16.00
Other   |            | 829.6      |            |       |  3.58

Nlocal:    500 ave 518 max 491 min
Histogram: 1 5 0 4 2 1 0 0 0 1
Nghost:    829.286 ave 1001 max 666 min
Histogram: 4 1 1 1 1 0 0 0 3 3
Neighs:    9696.79 ave 11037 max 8197 min
Histogram: 1 0 1 3 2 1 2 1 2 1

Total # of neighbors = 135755
Ave neighs/atom = 19.3936
Ave special neighs/atom = 7.19
Neighbor list builds = 6122993
Dangerous builds = 0
System init for write_restart ...
System init for write_data ...
Total wall time: 6:26:40
