LAMMPS (5 Jun 2019)
Reading restart file ...
  restart file = 5 Jun 2019, LAMMPS = 5 Jun 2019
  restoring atom style full from restart
  orthogonal box = (-500 -500 -500) to (500 500 500)
  1 by 2 by 7 MPI processor grid
  restoring pair style lj/cut from restart
  restoring bond style hybrid from restart
  restoring angle style cosine from restart
  7000 atoms
  7290 bonds
  6600 angles
Finding 1-2 1-3 1-4 neighbors ...
  special bond factors lj:   0          1          1         
  special bond factors coul: 0          0          0         
  3 = max # of 1-2 neighbors
  4 = max # of 1-3 neighbors
  8 = max # of 1-4 neighbors
  16 = max # of special neighbors
  special bonds CPU = 0.00143558 secs
  read_restart CPU = 0.010226 secs
Changing box ...
  orthogonal box = (-500 -500 -500) to (500 500 500)
  orthogonal box = (-500 -500 -500) to (500 500 500)
  orthogonal box = (-500 -500 -500) to (500 500 500)
Finding 1-2 1-3 1-4 neighbors ...
  special bond factors lj:   0          1          1         
  special bond factors coul: 0          0          0         
  3 = max # of 1-2 neighbors
  4 = max # of 1-3 neighbors
  8 = max # of 1-4 neighbors
  17120 = # of 1-3 neighbors before angle trim
  13200 = # of 1-3 neighbors after angle trim
  16 = max # of special neighbors
  special bonds CPU = 0.00131808 secs
1000 atoms in group rxnSites
Neighbor list info ...
  update every 1 steps, delay 1 steps, check yes
  max neighbors/atom: 2000, page size: 100000
  master list distance cutoff = 26.9
  ghost atom cutoff = 26.9
  binsize = 13.45, bins = 75 75 75
  2 neighbor lists, perpetual/occasional/extra = 1 1 0
  (1) pair lj/cut, perpetual
      attributes: half, newton on
      pair build: half/bin/newton
      stencil: half/bin/3d/newton
      bin: standard
  (2) fix bond/create/random, occasional, copy from (1)
      attributes: half, newton on
      pair build: copy
      stencil: none
      bin: none
Setting up Verlet run ...
  Unit style    : real
  Current step  : 300000000
  Time step     : 30
Per MPI rank memory allocation (min/avg/max) = 10.33 | 10.7 | 11.34 Mbytes
Step E_pair PotEng KinEng E_bond E_angle Temp Bonds 
300000000    -5023.524   -3066.1495    6451.2777    -2030.442    3987.8165     309.2256     7290 
301000000   -5158.7407   -3263.3828    6461.7661   -2158.0043    4053.3622    309.72834     7290 
302000000    -4955.796   -2952.4209     6460.521   -2081.8213    4085.1964    309.66866     7290 
303000000   -5024.2132   -2993.9926    6479.7176   -2112.8754    4143.0959    310.58879     7290 
304000000   -5063.2527   -3129.5935     6415.487   -2169.1283    4102.7875    307.51007     7290 
305000000   -5057.7017   -3130.9029    6460.0034   -2079.5191     4006.318    309.64384     7290 
306000000   -5019.5413   -3020.9722    6462.4958   -2061.7845    4060.3536    309.76331     7290 
307000000   -5093.2326   -3154.3684    6519.1432   -2121.3135    4060.1777    312.47856     7290 
308000000   -5197.4441   -3219.2871    6486.0064   -2088.5482    4066.7052    310.89023     7290 
309000000   -5106.0148   -3156.2934    6494.9841   -2075.0013    4024.7227    311.32056     7290 
310000000   -4941.7165   -3015.5152    6518.2324   -2072.0273    3998.2285     312.4349     7290 
311000000    -5149.972   -3214.6634    6499.9034   -2100.7672    4036.0758    311.55635     7290 
312000000   -4991.7779   -3090.1579    6480.5558   -2173.6327    4075.2527    310.62897     7290 
313000000   -5115.0415   -3136.4549    6386.4822    -2094.921    4073.5076    306.11979     7290 
314000000   -5134.0641   -3094.3694    6444.6115   -2128.7395    4168.4342    308.90607     7290 
315000000   -5079.9587   -3135.3529    6481.8446   -2105.7681    4050.3738    310.69075     7290 
316000000   -5141.3427   -3165.4643     6516.903   -2089.3381    4065.2165    312.37118     7290 
317000000   -5012.5072   -3092.2575     6494.701   -2089.0816    4009.3313    311.30699     7289 
318000000   -5094.3017   -3041.6964    6439.4544   -2017.2802    4069.8855    308.65888     7289 
319000000   -5166.4867   -3158.4391    6376.4625    -2090.019    4098.0667    305.63952     7290 
320000000   -5005.3802   -3069.1784    6561.6796     -2106.14    4042.3418    314.51744     7290 
321000000   -5071.6146   -3209.2391    6544.8541   -2111.2788    3973.6543    313.71095     7290 
322000000   -5067.7688   -3130.7364    6476.9766   -2141.1769    4078.2093    310.45741     7290 
323000000   -5041.5857   -3147.1649     6506.665   -2135.2691    4029.6899    311.88045     7290 
324000000   -5099.4788   -3059.8385    6443.6155   -2069.6918     4109.332    308.85833     7290 
325000000   -5130.4311   -3172.6802    6445.0621   -2090.6798    4048.4307    308.92767     7289 
326000000   -5137.0461   -3114.5338    6373.7468   -2085.2733    4107.7857    305.50936     7289 
327000000   -5079.7518   -3144.7319    6410.2831   -2109.1561    4044.1761    307.26063     7289 
328000000   -5015.9804   -3095.0073    6440.0598   -2128.2722    4049.2453     308.6879     7289 
329000000   -5158.7659   -3156.1511    6525.6179   -2031.6533    4034.2681    312.78891     7289 
330000000   -5079.8029   -3162.1846    6384.8239   -2125.0672    4042.6855    306.04031     7289 
331000000   -4953.0473    -3101.731    6520.2695   -2098.1631    3949.4794    312.53255     7289 
332000000   -4978.6031     -3005.79     6532.949   -2082.4465    4055.2595    313.14031     7289 
333000000   -5099.5804   -3125.7805    6431.7975    -2098.295    4072.0949    308.29187     7289 
334000000   -5087.7264   -3093.9559    6407.7189   -2090.5241    4084.2946    307.13772     7289 
335000000    -5107.968   -3106.4231    6533.4692   -2083.1862    4084.7311    313.16524     7289 
336000000   -5095.9807   -3094.3979    6401.1109   -2040.3612     4041.944    306.82098     7289 
337000000   -5115.7345   -3233.3027    6319.6348   -2041.1786    3923.6103    302.91563     7289 
338000000   -5024.1376   -3079.9545    6521.4935   -2091.6319     4035.815    312.59122     7289 
339000000    -5123.481   -3200.4835    6507.2249   -2102.7654    4025.7629    311.90729     7289 
340000000   -5061.1116    -3077.645     6514.003   -2077.2108    4060.6774    312.23218     7289 
341000000    -5146.231    -3254.333    6406.5028   -2132.0192    4023.9172    307.07943     7289 
342000000   -5130.9522   -3158.9816    6430.9528   -2116.1777    4088.1484    308.25138     7290 
343000000   -5077.0057   -3012.2429    6439.7935   -2064.5926    4129.3554    308.67513     7290 
344000000   -5030.1294   -3087.4312    6513.6261   -2125.3106    4068.0089    312.21411     7290 
345000000   -5012.9008   -3002.5485    6549.4346   -2064.7984    4075.1508     313.9305     7290 
346000000   -5032.0174   -3110.1429    6368.6956    -2091.901    4013.7754    305.26724     7290 
347000000   -4930.7765   -2997.0216    6515.2039   -2116.6416    4050.3965    312.28974     7290 
348000000   -5006.1785   -3023.9426    6481.7361   -2086.1908    4068.4267    310.68555     7289 
349000000   -4986.7204   -3088.1315    6440.3298   -2088.5948    3987.1838    308.70084     7290 
350000000    -5083.236   -3088.4185      6479.53   -2121.8108    4116.6284     310.5798     7290 
351000000    -5097.246   -3181.8808     6469.601   -2084.3768     3999.742    310.10388     7290 
352000000   -5029.5192   -3123.1797    6343.2144   -2170.0926    4076.4321    304.04586     7290 
353000000   -5056.0695   -3067.7225    6533.5829    -2070.912     4059.259    313.17069     7290 
354000000   -4993.1488   -3107.1157    6433.8577   -2185.4148    4071.4479    308.39062     7290 
355000000   -5123.2868   -3275.8652    6458.8808   -2163.8893    4011.3109    309.59003     7290 
356000000   -5033.6927   -3044.4209    6598.8905   -2103.2817    4092.5535    316.30105     7290 
357000000   -5074.7399   -3072.6661     6521.648   -2045.4489    4047.5227    312.59862     7290 
358000000   -5037.5956   -3085.1544     6534.978   -2066.2786    4018.7198    313.23756     7290 
359000000   -5000.8528   -3133.9489    6446.5158   -2121.9302    3988.8341    308.99735     7290 
360000000   -5068.3973   -3096.4979    6457.3529   -2100.8715    4072.7708     309.5168     7290 
361000000    -5128.531   -3124.0126    6378.0446   -2094.8059    4099.3243    305.71536     7290 
362000000   -5112.9531   -3151.9709    6454.4229   -2123.7413    4084.7235    309.37636     7290 
363000000   -5036.1279   -3122.1141     6462.566   -2139.3629    4053.3767    309.76668     7290 
364000000   -5063.9618   -3141.4222     6513.636   -2154.0352    4076.5748    312.21459     7290 
365000000   -4971.8015   -2974.5955    6520.0824   -2075.5684    4072.7744    312.52358     7290 
366000000   -5009.4627   -3085.4155    6441.1633   -2106.0026    4030.0498    308.74079     7290 
367000000   -5098.7674   -3145.1801    6492.6167   -2085.2051    4038.7925    311.20708     7290 
368000000   -5108.0414   -3063.1873    6454.9798   -2056.8991    4101.7533    309.40305     7290 
369000000   -5001.0348   -2998.9519    6419.3903   -2082.4365    4084.5195    307.69716     7290 
370000000   -5199.7362   -3262.7816    6406.5893   -2106.2923    4043.2469    307.08358     7290 
371000000   -4937.7377   -3049.0621    6485.6942   -2087.7173     3976.393    310.87527     7290 
372000000   -4998.1977   -3008.1891    6414.8873   -2090.1971    4080.2057    307.48132     7290 
373000000   -5061.7277   -3163.0671    6484.5404   -2125.7778    4024.4383    310.81996     7291 
374000000   -5074.4776   -3140.2597    6550.8495   -2103.5654    4037.7832    313.99832     7291 
375000000   -5078.4562   -3100.8994    6424.3889    -2064.663    4042.2198    307.93675     7291 
376000000   -5002.9129   -3084.9537    6384.7696   -2149.4349    4067.3942     306.0377     7291 
377000000   -4963.3428   -3018.1294    6392.7033   -2083.0316     4028.245    306.41799     7291 
378000000   -4951.2238   -3113.9136    6485.9883   -2170.4047    4007.7149    310.88937     7291 
379000000   -5066.8245   -3115.0577    6422.8997   -2122.4275    4074.1943    307.86537     7291 
380000000   -5064.8034   -3185.8142    6415.6224   -2145.0923    4024.0815    307.51655     7291 
381000000   -5005.4775   -3123.1162    6436.9539    -2195.756    4078.1174    308.53903     7291 
382000000   -5085.2834   -3170.3972    6533.2562   -2078.5218    3993.4081    313.15503     7291 
383000000   -5094.1073   -3076.6628    6464.6916   -2049.5244    4066.9688    309.86856     7291 
384000000     -5033.67   -3189.7699    6407.9246   -2111.7727    3955.6727    307.14758     7291 
385000000   -5039.4959   -3083.9652    6473.5625   -2055.0798    4010.6105    310.29377     7291 
386000000   -4922.2214   -2909.3676    6612.3273   -2065.6199    4078.4737     316.9451     7291 
387000000   -5110.2192   -3135.3214    6506.6064   -2139.0816    4113.9795    311.87764     7291 
388000000   -5174.3219   -3140.1561    6521.7312   -2111.5569    4145.7228    312.60261     7291 
389000000     -4961.65   -3056.1631    6396.7419   -2110.9097    4016.3966    306.61157     7291 
390000000   -5054.3235   -3176.6789    6460.4537   -2113.9353    3991.5798    309.66543     7291 
391000000   -5067.9798   -3059.5274    6487.1515   -2012.6528    4021.1053    310.94512     7291 
392000000   -5051.7585   -3118.5278     6512.214   -2119.1558    4052.3866    312.14643     7291 
393000000    -5038.798   -3071.3308     6391.732   -2111.4407    4078.9078    306.37143     7291 
394000000   -5108.0004   -3193.2682    6415.6198   -2131.7281    4046.4603    307.51643     7291 
395000000    -5025.529    -3161.323    6473.4612   -2176.8169    4041.0229    310.28891     7291 
396000000   -5156.1176   -3175.4364    6428.9556    -2112.576    4093.2572    308.15565     7291 
397000000   -5074.8965   -3102.7864      6528.81   -2110.9817    4083.0917    312.94192     7291 
398000000   -5002.3092   -3032.2923    6475.2152   -2096.0537    4066.0706    310.37298     7290 
399000000   -5047.0137   -3104.7613    6450.7761   -2051.0216    3993.2741    309.20156     7290 
400000000   -4997.7961   -3043.5768    6511.1684   -2112.0914    4066.3107    312.09631     7291 
Loop time of 23240.4 on 14 procs for 100000000 steps with 7000 atoms

Performance: 11152.990 ns/day, 0.002 hours/ns, 4302.851 timesteps/s
99.6% CPU use with 14 MPI tasks x no OpenMP threads

MPI task timing breakdown:
Section |  min time  |  avg time  |  max time  |%varavg| %total
---------------------------------------------------------------
Pair    | 5848.1     | 7021.5     | 7980       | 656.0 | 30.21
Bond    | 1070.8     | 1094.8     | 1240.6     | 125.6 |  4.71
Neigh   | 4218.7     | 4238.8     | 4270.7     |  26.5 | 18.24
Comm    | 5187.7     | 6355.7     | 7867.5     | 851.5 | 27.35
Output  | 0.43605    | 0.43621    | 0.43634    |   0.0 |  0.00
Modify  | 3680.7     | 3712.3     | 3726.6     |  20.0 | 15.97
Other   |            | 816.9      |            |       |  3.51

Nlocal:    500 ave 521 max 463 min
Histogram: 1 0 1 1 2 1 2 1 1 4
Nghost:    819.357 ave 1049 max 631 min
Histogram: 2 4 1 0 1 0 0 4 0 2
Neighs:    9681.79 ave 11082 max 7829 min
Histogram: 3 0 0 0 1 2 2 4 0 2

Total # of neighbors = 135545
Ave neighs/atom = 19.3636
Ave special neighs/atom = 7.17629
Neighbor list builds = 6122875
Dangerous builds = 0
System init for write_restart ...
System init for write_data ...
Total wall time: 6:27:20
