LAMMPS (5 Jun 2019)
Reading restart file ...
  restart file = 5 Jun 2019, LAMMPS = 5 Jun 2019
  restoring atom style full from restart
  orthogonal box = (-500 -500 -500) to (500 500 500)
  1 by 2 by 7 MPI processor grid
  restoring pair style lj/cut from restart
  restoring bond style hybrid from restart
  restoring angle style cosine from restart
  7000 atoms
  7290 bonds
  6600 angles
Finding 1-2 1-3 1-4 neighbors ...
  special bond factors lj:   0          1          1         
  special bond factors coul: 0          0          0         
  3 = max # of 1-2 neighbors
  4 = max # of 1-3 neighbors
  8 = max # of 1-4 neighbors
  16 = max # of special neighbors
  special bonds CPU = 0.238948 secs
  read_restart CPU = 0.434428 secs
Changing box ...
  orthogonal box = (-500 -500 -500) to (500 500 500)
  orthogonal box = (-500 -500 -500) to (500 500 500)
  orthogonal box = (-500 -500 -500) to (500 500 500)
Finding 1-2 1-3 1-4 neighbors ...
  special bond factors lj:   0          1          1         
  special bond factors coul: 0          0          0         
  3 = max # of 1-2 neighbors
  4 = max # of 1-3 neighbors
  8 = max # of 1-4 neighbors
  17120 = # of 1-3 neighbors before angle trim
  13200 = # of 1-3 neighbors after angle trim
  16 = max # of special neighbors
  special bonds CPU = 0.00154883 secs
1000 atoms in group rxnSites
Neighbor list info ...
  update every 1 steps, delay 1 steps, check yes
  max neighbors/atom: 2000, page size: 100000
  master list distance cutoff = 26.9
  ghost atom cutoff = 26.9
  binsize = 13.45, bins = 75 75 75
  2 neighbor lists, perpetual/occasional/extra = 1 1 0
  (1) pair lj/cut, perpetual
      attributes: half, newton on
      pair build: half/bin/newton
      stencil: half/bin/3d/newton
      bin: standard
  (2) fix bond/create/random, occasional, copy from (1)
      attributes: half, newton on
      pair build: copy
      stencil: none
      bin: none
Setting up Verlet run ...
  Unit style    : real
  Current step  : 300000000
  Time step     : 30
Per MPI rank memory allocation (min/avg/max) = 10.33 | 10.7 | 11.34 Mbytes
Step E_pair PotEng KinEng E_bond E_angle Temp Bonds 
300000000    -5023.524   -3066.1495    6451.2777    -2030.442    3987.8165     309.2256     7290 
301000000    -5069.877   -3047.6001     6513.243   -2063.4149    4085.6918    312.19575     7290 
302000000    -5120.932   -3168.3765    6409.9162   -2095.5557    4048.1111    307.24304     7290 
303000000   -5021.7018   -3017.7813    6495.9735   -2078.4415     4082.362    311.36798     7290 
304000000   -5054.2477   -3173.6667    6446.9906   -2135.8419    4016.4229    309.02011     7290 
305000000   -5108.0048   -3226.4408    6446.1976   -2132.6642    4014.2283     308.9821     7290 
306000000   -5135.1538   -3166.6072    6461.6893   -2081.4862    4050.0328    309.72466     7290 
307000000   -5097.6808   -3210.0789    6545.9322   -2104.8382    3992.4401    313.76262     7290 
308000000    -5024.615   -3082.6567     6403.126   -2131.8998    4073.8581    306.91757     7290 
309000000   -5010.3191    -3065.304    6523.2184   -2135.0985    4080.1136     312.6739     7290 
310000000   -5077.5831    -3143.997    6547.5849   -2093.7572    4027.3433    313.84184     7290 
311000000   -5019.2109    -3169.804    6412.7882   -2158.1791    4007.5859     307.3807     7290 
312000000   -5171.2241   -3243.8408     6469.654    -2062.487    3989.8703    310.10642     7290 
313000000   -5058.8883   -3182.2662    6418.6408   -2118.5872    3995.2094    307.66124     7290 
314000000    -5225.585   -3264.5668    6354.7431   -2108.7832    4069.8014    304.59846     7290 
315000000   -5116.2287   -3122.2767    6396.8239   -2055.2044    4049.1564     306.6155     7289 
316000000   -5052.4123   -3219.4596    6456.1724   -2151.8037    3984.7565    309.46022     7290 
317000000   -5061.5876   -3123.9708    6454.8044   -2090.2414    4027.8581    309.39465     7290 
318000000   -5166.9413   -3247.3737    6442.9415    -2119.343    4038.9105    308.82603     7291 
319000000   -5023.9458   -3038.7309    6540.3609   -2055.9348    4041.1497    313.49558     7291 
320000000    -5012.449   -2988.5312    6420.2709   -2056.1808    4080.0986    307.73937     7291 
321000000    -5063.911   -3013.2906    6513.8342   -2056.8836     4107.504    312.22409     7291 
322000000   -5143.1155   -3141.1764     6512.396   -2060.7098     4062.649    312.15515     7291 
323000000   -5054.9013   -3100.0102     6539.242   -2165.7541    4120.6452    313.44195     7291 
324000000   -5055.2828   -3090.4222    6523.4282   -2045.0971    4009.9577    312.68395     7291 
325000000   -5127.0039   -3131.4425    6391.7167   -2085.2477     4080.809    306.37069     7291 
326000000   -5122.6743   -3256.9837    6421.0557   -2128.1068    3993.7974    307.77699     7291 
327000000   -5019.8458   -3174.1065    6532.3958   -2140.1904    3985.9297    313.11379     7291 
328000000   -5082.8218    -3180.495    6470.4777   -2176.2867    4078.6135     310.1459     7291 
329000000   -5177.9509   -3261.0906    6465.0027   -2105.5077     4022.368    309.88347     7291 
330000000   -5103.3065   -3252.6131    6395.1763   -2152.3066         4003    306.53652     7291 
331000000   -5065.6364   -3146.4067    6559.3548   -2116.0342    4035.2639      314.406     7291 
332000000    -5229.454   -3350.2422    6480.4094   -2173.9474    4053.1592    310.62196     7291 
333000000   -5166.2852    -3141.428    6349.4874   -2024.7887    4049.6459    304.34654     7291 
334000000   -5034.3275   -3106.2237    6470.1999   -2146.9336    4075.0373    310.13259     7291 
335000000   -5087.0657   -3125.8371    6454.9751   -2078.7849    4040.0136    309.40283     7291 
336000000   -5093.0242   -3047.9139    6448.3477   -2091.6351    4136.7453    309.08516     7291 
337000000   -5063.0238   -3146.1787    6388.9056   -2107.8716    4024.7167    306.23595     7291 
338000000   -4975.3091   -3056.5642    6495.3412   -2113.3076    4032.0524    311.33767     7291 
339000000    -5029.624   -3046.4844    6422.4993   -2134.1003    4117.2398    307.84618     7291 
340000000   -5127.8758   -3060.4703      6485.64   -2063.8122    4131.2177    310.87267     7291 
341000000   -5000.7446   -3052.3037    6531.4801   -2066.6552    4015.0962     313.0699     7291 
342000000   -5032.6915   -3120.2916    6325.8295   -2105.4037    4017.8035    303.21256     7291 
343000000   -5109.9966    -3092.156    6491.4317   -2125.7735    4143.6142    311.15028     7291 
344000000   -5120.9995   -3364.4287    6430.4648   -2203.2891      3959.86    308.22799     7291 
345000000   -5028.3708   -3103.4025    6365.8058   -2080.5005    4005.4687    305.12872     7291 
346000000   -5024.8917   -3166.3825    6464.7506     -2155.32    4013.8292    309.87139     7291 
347000000   -5046.9015   -3084.6927     6390.773   -2129.2024    4091.4112    306.32546     7291 
348000000   -5031.2652   -3191.0128    6483.8037   -2172.7852    4013.0376    310.78465     7291 
349000000   -5016.0269   -3009.4605    6384.1103   -2064.4528    4071.0192     306.0061     7291 
350000000   -5016.6345   -3070.7867     6426.705   -2089.6847    4035.5325    308.04777     7291 
351000000   -5125.1588   -3153.3044    6546.0532   -2131.8632    4103.7176    313.76842     7291 
352000000   -5131.3943   -3219.0606    6500.8759   -2149.0765    4061.4103    311.60297     7291 
353000000   -5097.5296    -3152.552     6463.774     -2109.55    4054.5276    309.82458     7291 
354000000   -5078.7329   -3054.2369     6419.494   -2119.8124    4144.3083    307.70213     7291 
355000000   -5059.7366   -3160.7589    6554.3247    -2205.781    4104.7587     314.1649     7291 
356000000   -5016.6708   -3098.0317    6452.5859   -2057.7316    3976.3707    309.28831     7291 
357000000   -5071.0544   -3043.5468    6409.3349   -2117.2524      4144.76    307.21518     7291 
358000000   -5046.9018   -3114.8689    6511.9931   -2064.1559    3996.1888    312.13584     7291 
359000000   -5080.1428   -3204.5872    6571.3143   -2111.0228    3986.5784    314.97925     7291 
360000000   -5063.7162   -3078.8632    6573.2807   -2077.4236    4062.2766    315.07351     7291 
361000000   -5101.1758   -3198.2593    6535.5099   -2131.2201    4034.1367    313.26306     7291 
362000000   -5121.5631   -3256.6018     6441.876   -2165.1863    4030.1476    308.77495     7291 
363000000    -4978.028   -3107.3268    6417.7434   -2144.0553    4014.7565    307.61822     7291 
364000000   -5078.8346      -3160.7    6480.5356   -2121.9433    4040.0779      310.628     7291 
365000000   -5152.6332    -3257.366    6470.8244   -2133.9826    4029.2498    310.16252     7291 
366000000   -5077.8115   -3018.1247    6579.1224   -2021.6482     4081.335    315.35351     7291 
367000000    -5043.613   -3142.3672    6431.5574   -2167.5127    4068.7584    308.28036     7291 
368000000    -5101.626   -3066.9879    6461.3964   -2057.4501    4092.0881    309.71062     7291 
369000000   -5016.5131   -3167.9909     6430.351   -2171.4559    4019.9781    308.22253     7291 
370000000   -5042.7064   -3163.2454    6457.1065   -2147.8048    4027.2658    309.50499     7291 
371000000   -4967.6906   -3006.9781     6368.998   -2076.2278    4036.9403    305.28173     7291 
372000000   -5118.6099   -3172.7692    6395.0661   -2123.6826    4069.5232    306.53124     7291 
373000000    -5060.204   -3171.3829    6509.5874   -2121.7882    4010.6093    312.02053     7292 
374000000   -4976.8017   -3087.4731    6531.8657    -2051.535    3940.8636    313.08838     7292 
375000000   -5027.1386   -3045.6357    6480.5626   -2080.2071      4061.71     310.6293     7291 
376000000   -4916.3437   -2975.6296    6454.5101   -2112.5876    4053.3017    309.38054     7291 
377000000   -5054.4373   -3177.7072    6489.2156   -2162.8083    4039.5384    311.04406     7292 
378000000   -5103.3442   -3257.5033    6498.3688   -2152.9179    3998.7588    311.48279     7292 
379000000   -5036.4788   -3158.8491    6408.7267   -2212.2253    4089.8549    307.18603     7292 
380000000   -5155.2135   -3225.4404    6589.2888   -2126.0955    4055.8687    315.84081     7292 
381000000   -5043.4163   -3083.7911    6512.4536   -2100.0283    4059.6535    312.15791     7292 
382000000    -5109.048   -3184.9443    6386.0964   -2095.5114    4019.6152     306.1013     7292 
383000000   -5184.6832   -3184.8053    6518.4694   -2068.7622    4068.6402    312.44626     7292 
384000000   -5035.3208   -3056.9533    6488.8978   -2072.8755     4051.243    311.02882     7292 
385000000   -5016.9796   -3054.7053    6413.6163   -2137.2014    4099.4757     307.4204     7292 
386000000   -5077.0578   -3144.3213     6500.753   -2073.5236    4006.2601    311.59707     7292 
387000000   -5071.6403   -3141.6883    6408.7359   -2107.3872    4037.3392    307.18647     7292 
388000000   -5077.9423   -3107.9619    6513.4837   -2045.9019    4015.8823    312.20729     7292 
389000000   -5085.0619   -3100.9163    6443.0728   -2099.6468    4083.7923    308.83232     7292 
390000000   -5057.1727   -3202.1066    6502.7827   -2148.2002    4003.2662    311.69436     7292 
391000000   -5016.8974   -3184.8983    6496.5109   -2193.1265    4025.1255    311.39374     7292 
392000000   -5074.0422   -3049.1297    6559.5597   -2051.4374    4076.3499    314.41582     7292 
393000000   -5062.2989   -3154.8067    6478.1898   -2113.1575    4020.6498    310.51556     7292 
394000000   -5129.1314   -3145.5937    6401.9534   -2085.1085    4068.6462    306.86136     7292 
395000000   -5098.1948   -3204.2664    6480.5537   -2082.5353    3976.4637    310.62887     7292 
396000000   -5084.8949   -3176.4012    6568.3416   -2086.3479    3994.8417    314.83676     7292 
397000000   -5061.5588    -3218.405    6460.6355    -2166.321    4009.4749    309.67414     7292 
398000000   -5130.2203   -3216.5627    6500.3836   -2130.9123    4044.5698    311.57937     7292 
399000000   -5064.1523   -3123.6867    6565.9499   -2092.4337    4032.8993    314.72212     7292 
400000000    -5103.651   -3226.7053    6471.5887   -2119.4592    3996.4049    310.19916     7292 
Loop time of 26277.7 on 14 procs for 100000000 steps with 7000 atoms

Performance: 9863.879 ns/day, 0.002 hours/ns, 3805.509 timesteps/s
99.6% CPU use with 14 MPI tasks x no OpenMP threads

MPI task timing breakdown:
Section |  min time  |  avg time  |  max time  |%varavg| %total
---------------------------------------------------------------
Pair    | 6037.2     | 7204.5     | 8678.4     | 853.9 | 27.42
Bond    | 1074.1     | 1107.8     | 1196       | 133.8 |  4.22
Neigh   | 4586.7     | 4612.8     | 4662.2     |  32.9 | 17.55
Comm    | 6436.1     | 7763.4     | 9026.3     | 812.6 | 29.54
Output  | 0.4206     | 0.42085    | 0.42112    |   0.0 |  0.00
Modify  | 3951.5     | 4015.5     | 4199.6     | 144.5 | 15.28
Other   |            | 1573       |            |       |  5.99

Nlocal:    500 ave 524 max 464 min
Histogram: 1 0 0 0 3 3 2 3 1 1
Nghost:    810.929 ave 972 max 591 min
Histogram: 1 0 2 2 2 1 0 1 2 3
Neighs:    9910.43 ave 11435 max 8468 min
Histogram: 4 0 1 1 0 2 0 3 2 1

Total # of neighbors = 138746
Ave neighs/atom = 19.8209
Ave special neighs/atom = 7.16857
Neighbor list builds = 6122945
Dangerous builds = 0
System init for write_restart ...
System init for write_data ...
Total wall time: 7:17:59
