LAMMPS data file via write_data, version 5 Jun 2019, timestep = 400000000

7000 atoms
4 atom types
7285 bonds
3 bond types
6600 angles
2 angle types

-5.0000000000000000e+02 5.0000000000000000e+02 xlo xhi
-5.0000000000000000e+02 5.0000000000000000e+02 ylo yhi
-5.0000000000000000e+02 5.0000000000000000e+02 zlo zhi

Masses

1 1000
2 1000
3 1000
4 1000

Pair Coeffs # lj/cut

1 0.178 10
2 0.178 10
3 0.178 10
4 0.178 10

Angle Coeffs # cosine

1 2
2 2

Atoms # full

6509 186 4 0.0000000000000000e+00 -4.6146366686238082e+01 -4.4072760362607568e+01 -2.1705929556964412e+02 0 0 0
6510 186 4 0.0000000000000000e+00 -4.4068126771743110e+01 -3.8598960440474244e+01 -2.2498174603454649e+02 0 0 0
6508 186 4 0.0000000000000000e+00 -5.0816207535216108e+01 -4.9995461467120208e+01 -2.1045423089273581e+02 0 0 0
6507 186 3 0.0000000000000000e+00 -5.6177016452740318e+01 -4.8231763463484945e+01 -2.0213804510031542e+02 0 0 0
2226 64 2 0.0000000000000000e+00 -3.5855894292424338e+01 -3.4906779728427651e+01 -2.0259853856516392e+02 0 0 0
2223 64 1 0.0000000000000000e+00 -5.2019923284190874e+01 -5.8428524753742536e+01 -2.0088976351881939e+02 0 0 0
2222 64 2 0.0000000000000000e+00 -5.3788942954960966e+01 -6.2497696303679660e+01 -1.9250997074142222e+02 0 0 0
6506 186 4 0.0000000000000000e+00 -5.7713744576745476e+01 -4.9722042350885182e+01 -1.9306351543475009e+02 0 0 0
2224 64 2 0.0000000000000000e+00 -4.5673172382790824e+01 -5.0834570342068510e+01 -1.9936965318646415e+02 0 0 0
2225 64 2 0.0000000000000000e+00 -3.8515326393313096e+01 -4.3964710651430408e+01 -1.9923400377360977e+02 0 0 0
2233 64 2 0.0000000000000000e+00 -8.9061322279717317e+01 -2.8669827554487870e+01 -1.8861234287100172e+02 0 0 0
2228 64 2 0.0000000000000000e+00 -5.2061148921763234e+01 -2.6832814089491411e+01 -1.9728070992305342e+02 0 0 0
2227 64 2 0.0000000000000000e+00 -4.4771999243353314e+01 -3.2185445043839408e+01 -2.0128756295688120e+02 0 0 0
2230 64 1 0.0000000000000000e+00 -6.5768003148234897e+01 -1.5728400289341241e+01 -1.9055485301104687e+02 0 0 0
2229 64 2 0.0000000000000000e+00 -5.6741474227136898e+01 -2.0181408723322235e+01 -1.9229986975044224e+02 0 0 0
2221 64 2 0.0000000000000000e+00 -4.9543106603392395e+01 -6.7015724016322949e+01 -1.8437676921786718e+02 0 0 0
2220 64 2 0.0000000000000000e+00 -5.3543304533850588e+01 -6.2215551590882654e+01 -1.7665615168066321e+02 0 0 0
6504 186 4 0.0000000000000000e+00 -6.2365871437530707e+01 -5.0771506255974316e+01 -1.7467468007465914e+02 0 0 0
6505 186 4 0.0000000000000000e+00 -6.1823189765623674e+01 -5.1185760927657057e+01 -1.8453241993370611e+02 0 0 0
2234 64 2 0.0000000000000000e+00 -9.7914070207459176e+01 -3.1632878544799343e+01 -1.8613327090301641e+02 0 0 0
2235 64 2 0.0000000000000000e+00 -1.0088719130202762e+02 -2.5204811769821479e+01 -1.7889090271895734e+02 0 0 0
4728 136 4 0.0000000000000000e+00 -2.5582213328797700e+01 -3.1790535493493813e+01 -1.7667745037796462e+02 0 0 0
4727 136 4 0.0000000000000000e+00 -1.7533944985678563e+01 -3.2269676427338155e+01 -1.8365403442214841e+02 0 0 0
4726 136 4 0.0000000000000000e+00 -1.1174631374248520e+01 -2.7551647119665699e+01 -1.7760867753709684e+02 0 0 0
2236 64 2 0.0000000000000000e+00 -9.9396893525644643e+01 -1.5527325715971980e+01 -1.7581358370382358e+02 0 0 0
2232 64 2 0.0000000000000000e+00 -8.1999989180129958e+01 -2.2201739576930926e+01 -1.8504726987791736e+02 0 0 0
2231 64 2 0.0000000000000000e+00 -7.2842630205039882e+01 -1.8032783303960898e+01 -1.8453456065855684e+02 0 0 0
4445 127 4 0.0000000000000000e+00 -8.8038512936293301e+01 -9.4196289432629854e+00 -1.8643853432127673e+02 0 0 0
4444 127 4 0.0000000000000000e+00 -8.5450242140813685e+01 1.7810067153106890e-01 -1.8772845733127957e+02 0 0 0
4443 127 4 0.0000000000000000e+00 -7.6757266832833153e+01 5.5591677433829056e-01 -1.8593035496661878e+02 0 0 0
4442 127 3 0.0000000000000000e+00 -6.8775538049577207e+01 -5.6363959196139932e+00 -1.8720098815687703e+02 0 0 0
4441 127 4 0.0000000000000000e+00 -5.9759110169050388e+01 -3.7496660128548398e+00 -1.8240229819283363e+02 0 0 0
4440 127 4 0.0000000000000000e+00 -5.2179954988186466e+01 2.3796962380744637e+00 -1.7918521905924604e+02 0 0 0
2239 64 2 0.0000000000000000e+00 -8.7428221469579952e+01 7.9767097466611370e+00 -1.7472890931192788e+02 0 0 0
4439 127 4 0.0000000000000000e+00 -4.9580303414289560e+01 1.2038571904078044e+01 -1.7783316570421502e+02 0 0 0
2240 64 2 0.0000000000000000e+00 -8.6939429733128662e+01 1.8002315434864176e+01 -1.7534637960546860e+02 0 0 0
4438 127 4 0.0000000000000000e+00 -4.6477916471063125e+01 2.1480202187466521e+01 -1.7868931711814872e+02 0 0 0
4437 127 4 0.0000000000000000e+00 -3.7912126273822452e+01 2.6375484345597922e+01 -1.7808901257287832e+02 0 0 0
2218 64 2 0.0000000000000000e+00 -6.6026911218308868e+01 -5.8627408953896406e+01 -1.6348904394466496e+02 0 0 0
2219 64 2 0.0000000000000000e+00 -6.1931047693540144e+01 -6.3323773111711908e+01 -1.7088969172896009e+02 0 0 0
2091 60 2 0.0000000000000000e+00 -1.0412484907270451e+02 -4.1372053965431824e+01 -1.6450221216049920e+02 0 0 0
6503 186 4 0.0000000000000000e+00 -5.6204106309351246e+01 -5.0606730086771158e+01 -1.6678818735403544e+02 0 0 0
2094 60 2 0.0000000000000000e+00 -1.2578065834795852e+02 -2.7332727831311569e+01 -1.6863198978971903e+02 0 0 0
2093 60 2 0.0000000000000000e+00 -1.1662408685502179e+02 -2.7725431288887819e+01 -1.7172197960641344e+02 0 0 0
2092 60 2 0.0000000000000000e+00 -1.0990627136823284e+02 -3.3608585787471462e+01 -1.6651587661140789e+02 0 0 0
6511 187 4 0.0000000000000000e+00 -9.3235322492350463e+01 -3.6314422384641752e+01 -1.6973628469912273e+02 0 0 0
6512 187 4 0.0000000000000000e+00 -9.8785184708660566e+01 -2.8278742999674723e+01 -1.6993918516125882e+02 0 0 0
6513 187 4 0.0000000000000000e+00 -1.0245305381481718e+02 -2.4645852468934581e+01 -1.6176395136013483e+02 0 0 0
4729 136 3 0.0000000000000000e+00 -1.8973306182445757e+01 -2.6953509724629935e+01 -1.7071912449248845e+02 0 0 0
1627 47 2 0.0000000000000000e+00 -8.2034749297545730e+01 -1.1899584242411581e+01 -1.6577263236637262e+02 0 0 0
4548 130 4 0.0000000000000000e+00 -3.5482611221099191e+01 -1.2137852764496198e+01 -1.6301674686123050e+02 0 0 0
4730 136 4 0.0000000000000000e+00 -1.3834656055756072e+01 -1.9155373837459937e+01 -1.7028977883638314e+02 0 0 0
4731 136 4 0.0000000000000000e+00 -7.3034126490548008e+00 -1.2588247757069471e+01 -1.6826370372259694e+02 0 0 0
2237 64 1 0.0000000000000000e+00 -9.4074245717431367e+01 -8.7065062128384714e+00 -1.7176952431958665e+02 0 0 0
4743 136 3 0.0000000000000000e+00 -9.5811713423126463e+01 -3.6407639837744301e+00 -1.6209761755344960e+02 0 0 0
2238 64 2 0.0000000000000000e+00 -8.7173487697320255e+01 -1.8966551349365446e+00 -1.7313315648432200e+02 0 0 0
1626 47 2 0.0000000000000000e+00 -7.5048873098049867e+01 -5.4523061355986115e+00 -1.6892521702744747e+02 0 0 0
1625 47 2 0.0000000000000000e+00 -7.0523599600486861e+01 1.0948356107268911e+00 -1.6348448149692757e+02 0 0 0
4550 130 4 0.0000000000000000e+00 -5.2863882905594600e+01 -9.6499272783640730e+00 -1.6297000622033360e+02 0 0 0
4549 130 4 0.0000000000000000e+00 -4.4120240294000737e+01 -8.4408016180050964e+00 -1.6595097431188265e+02 0 0 0
4732 136 4 0.0000000000000000e+00 -9.5135346830960970e+00 -4.3692706849494778e+00 -1.6287107545328666e+02 0 0 0
4742 136 4 0.0000000000000000e+00 -8.9183200228578684e+01 3.4178483681580181e+00 -1.6443730202554161e+02 0 0 0
4741 136 4 0.0000000000000000e+00 -7.9697304004979571e+01 6.9392062204313198e+00 -1.6302474203638485e+02 0 0 0
1624 47 2 0.0000000000000000e+00 -6.6105864237987916e+01 8.7439994772907639e+00 -1.6803745778945495e+02 0 0 0
1623 47 2 0.0000000000000000e+00 -5.6237157171694015e+01 1.2355222989824441e+01 -1.6706119921759336e+02 0 0 0
1622 47 2 0.0000000000000000e+00 -4.9077981342197326e+01 9.4631794489503900e+00 -1.6160566005665112e+02 0 0 0
1621 47 1 0.0000000000000000e+00 -4.0055140953308744e+01 6.1823465132589686e+00 -1.6269175340616368e+02 0 0 0
4734 136 4 0.0000000000000000e+00 -2.2120513797623243e+01 1.0521702229503360e+01 -1.6304824050939820e+02 0 0 0
4733 136 4 0.0000000000000000e+00 -1.4713499452021519e+01 4.2665620395929604e+00 -1.6137983340451291e+02 0 0 0
2217 64 2 0.0000000000000000e+00 -6.6917270123738547e+01 -5.3128686558805768e+01 -1.5493666872709377e+02 0 0 0
2090 60 1 0.0000000000000000e+00 -9.5350028969449852e+01 -4.0653939990290667e+01 -1.5990111162069880e+02 0 0 0
2089 60 2 0.0000000000000000e+00 -8.5715672471557056e+01 -4.0969078255405385e+01 -1.5743991045848063e+02 0 0 0
1372 40 2 0.0000000000000000e+00 -7.9457593906072162e+01 -4.5287987588084881e+01 -1.5115078328415228e+02 0 0 0
1374 40 2 0.0000000000000000e+00 -6.5302530790064779e+01 -3.9062626412383253e+01 -1.6034926197068975e+02 0 0 0
1373 40 2 0.0000000000000000e+00 -7.4650868996678469e+01 -4.0699524733932009e+01 -1.5979354692887216e+02 0 0 0
6502 186 4 0.0000000000000000e+00 -5.3010474138406103e+01 -4.9194926803424302e+01 -1.5754391932282630e+02 0 0 0
6501 186 4 0.0000000000000000e+00 -5.3490474243736550e+01 -4.8408428757102698e+01 -1.4762363358324217e+02 0 0 0
6333 181 4 0.0000000000000000e+00 -4.7099006116492220e+01 -4.0036476371161250e+01 -1.5595659604686665e+02 0 0 0
6335 181 4 0.0000000000000000e+00 -2.8982119462054619e+01 -4.0013091351103675e+01 -1.5851720279701493e+02 0 0 0
2096 60 2 0.0000000000000000e+00 -1.1557723629423042e+02 -2.5066066180191577e+01 -1.5576821423387995e+02 0 0 0
2097 60 1 0.0000000000000000e+00 -1.0922652128400024e+02 -2.8823610608010920e+01 -1.4907194305630043e+02 0 0 0
2088 60 2 0.0000000000000000e+00 -8.1563222435652634e+01 -3.2682924936698043e+01 -1.5351739180185902e+02 0 0 0
2087 60 2 0.0000000000000000e+00 -7.6175662608712955e+01 -2.5748300658841941e+01 -1.4921067658694912e+02 0 0 0
1375 40 2 0.0000000000000000e+00 -6.0523068719188480e+01 -3.2372787309443460e+01 -1.5474776816323237e+02 0 0 0
1376 40 1 0.0000000000000000e+00 -5.4806180057130632e+01 -2.6014766859542608e+01 -1.4963002662533771e+02 0 0 0
6332 181 3 0.0000000000000000e+00 -5.4422667991799408e+01 -3.7215840456141173e+01 -1.4927572382991809e+02 0 0 0
6334 181 4 0.0000000000000000e+00 -3.8328991374761110e+01 -3.7237793619826256e+01 -1.5976235944610670e+02 0 0 0
1635 47 1 0.0000000000000000e+00 -2.1319850575592980e+01 -2.7023101548430645e+01 -1.5974051862351141e+02 0 0 0
1636 47 2 0.0000000000000000e+00 -1.7832420541447938e+01 -3.4646018870134078e+01 -1.5542519494080042e+02 0 0 0
1637 47 2 0.0000000000000000e+00 -7.8006005404444219e+00 -3.5186576040192691e+01 -1.5477039179211195e+02 0 0 0
2095 60 2 0.0000000000000000e+00 -1.2412316326078670e+02 -2.2872593881489340e+01 -1.5962128125406363e+02 0 0 0
6514 187 3 0.0000000000000000e+00 -1.0014463357119178e+02 -2.2546351741105070e+01 -1.5204208791271770e+02 0 0 0
5541 159 3 0.0000000000000000e+00 -8.5517722594608472e+01 -1.3790690441979583e+01 -1.5611362218275426e+02 0 0 0
5542 159 4 0.0000000000000000e+00 -8.5995810784871594e+01 -2.2440722074448669e+01 -1.5199313961626737e+02 0 0 0
1629 47 2 0.0000000000000000e+00 -6.5431019950545462e+01 -1.9214737950868365e+01 -1.5951772650764545e+02 0 0 0
1628 47 1 0.0000000000000000e+00 -7.5054594239310532e+01 -1.6106810023965107e+01 -1.5966985624693532e+02 0 0 0
1630 47 2 0.0000000000000000e+00 -5.5832156891593328e+01 -1.5832127921037177e+01 -1.5648566325680576e+02 0 0 0
1631 47 2 0.0000000000000000e+00 -4.9189040221294867e+01 -1.3420253390853594e+01 -1.4965776654531302e+02 0 0 0
1633 47 2 0.0000000000000000e+00 -3.3488470317679685e+01 -1.7960713744791242e+01 -1.4830851851714056e+02 0 0 0
4547 130 3 0.0000000000000000e+00 -2.7333259958943479e+01 -1.2627355044865395e+01 -1.5785121706038115e+02 0 0 0
1634 47 2 0.0000000000000000e+00 -2.7584691219459643e+01 -2.3491600517361455e+01 -1.5435855369196895e+02 0 0 0
4546 130 4 0.0000000000000000e+00 -1.7464956085144919e+01 -1.3925951161597013e+01 -1.5710203926272715e+02 0 0 0
4545 130 4 0.0000000000000000e+00 -1.0043859750237434e+01 -1.5919308654723869e+01 -1.5183704586789386e+02 0 0 0
4744 136 4 0.0000000000000000e+00 -9.9992761966960188e+01 -9.8163837535304221e+00 -1.5518299598545249e+02 0 0 0
5540 159 4 0.0000000000000000e+00 -8.5237476121206868e+01 -3.6921237903221988e+00 -1.5765788283178844e+02 0 0 0
3020 87 2 0.0000000000000000e+00 -4.1565577978127806e+01 -6.9330254412422787e-01 -1.5347324262741014e+02 0 0 0
3021 87 1 0.0000000000000000e+00 -3.3580126067282315e+01 -5.8601239665049505e+00 -1.5207709842742400e+02 0 0 0
3022 87 2 0.0000000000000000e+00 -2.5001167214683171e+01 -2.4325662062372198e+00 -1.5023531684124384e+02 0 0 0
3023 87 2 0.0000000000000000e+00 -1.5967910463799267e+01 -4.0347025855020489e+00 -1.5350259342210984e+02 0 0 0
3024 87 2 0.0000000000000000e+00 -7.6528298184604440e+00 -3.9474089480197168e+00 -1.4840636057280048e+02 0 0 0
5539 159 4 0.0000000000000000e+00 -8.7059461121995909e+01 5.8448616789429169e+00 -1.5404161078356790e+02 0 0 0
5538 159 4 0.0000000000000000e+00 -8.5963061070720144e+01 1.4172270611211225e+01 -1.4808975247875716e+02 0 0 0
4740 136 4 0.0000000000000000e+00 -7.4856862527142610e+01 9.9816266819365858e+00 -1.5555712670788930e+02 0 0 0
4739 136 4 0.0000000000000000e+00 -6.8755204743735078e+01 1.6531275910142558e+01 -1.5207490947236937e+02 0 0 0
4738 136 4 0.0000000000000000e+00 -5.9069959726437617e+01 1.5211536193412844e+01 -1.5314215158268573e+02 0 0 0
4737 136 4 0.0000000000000000e+00 -4.8981064273574752e+01 1.3471696554699463e+01 -1.5232764190481799e+02 0 0 0
3019 87 2 0.0000000000000000e+00 -4.8523887793929610e+01 3.6723147322357814e+00 -1.4840586140828867e+02 0 0 0
4736 136 3 0.0000000000000000e+00 -4.0737588551743123e+01 1.6016898936009440e+01 -1.5672584615860038e+02 0 0 0
4735 136 4 0.0000000000000000e+00 -3.1835252536743667e+01 1.3088586948231539e+01 -1.6067868683598479e+02 0 0 0
1620 47 2 0.0000000000000000e+00 -3.2928017375452512e+01 5.1857802445016281e+00 -1.5553133101994680e+02 0 0 0
1619 47 2 0.0000000000000000e+00 -2.4811690104046466e+01 7.1866461083456477e+00 -1.4894403869812876e+02 0 0 0
5534 159 3 0.0000000000000000e+00 -1.0466238833727175e+02 2.0778443122496185e+01 -1.4779781241354823e+02 0 0 0
5535 159 4 0.0000000000000000e+00 -1.0454483388526711e+02 2.6352499230563225e+01 -1.5669652838845570e+02 0 0 0
5536 159 4 0.0000000000000000e+00 -9.4601515810384541e+01 2.5936864146035251e+01 -1.5688800195175952e+02 0 0 0
5537 159 4 0.0000000000000000e+00 -8.6879853225168205e+01 2.3848771019543733e+01 -1.5164113963158508e+02 0 0 0
3016 87 2 0.0000000000000000e+00 -4.1422468508194157e+01 2.7791044772643911e+01 -1.4742030868478582e+02 0 0 0
4198 120 4 0.0000000000000000e+00 -8.5534854742750298e+01 -6.6236322772567874e+01 -1.3531338261125850e+02 0 0 0
2528 73 2 0.0000000000000000e+00 -1.2676801190221522e+02 -6.4284007369415818e+01 -1.3414099108837706e+02 0 0 0
2099 60 2 0.0000000000000000e+00 -9.9921383912112816e+01 -3.9218245750413615e+01 -1.3584066340005455e+02 0 0 0
1371 40 2 0.0000000000000000e+00 -7.8753333290953321e+01 -4.3369157363169762e+01 -1.4104696108603471e+02 0 0 0
2216 64 1 0.0000000000000000e+00 -6.4827984663107785e+01 -4.7502561509829064e+01 -1.4711067791243940e+02 0 0 0
2215 64 2 0.0000000000000000e+00 -6.4251732500043175e+01 -4.0657015870093630e+01 -1.3979250695371874e+02 0 0 0
6500 186 3 0.0000000000000000e+00 -5.7333958783888839e+01 -4.6989405589172705e+01 -1.3891203427170893e+02 0 0 0
2098 60 2 0.0000000000000000e+00 -1.0602116771288571e+02 -3.5030478352165254e+01 -1.4170896993644419e+02 0 0 0
5543 159 4 0.0000000000000000e+00 -8.5603892749775596e+01 -2.7499019164335422e+01 -1.4316060961222846e+02 0 0 0
2214 64 2 0.0000000000000000e+00 -6.8891219836857076e+01 -3.1924933200577609e+01 -1.3752493220147940e+02 0 0 0
6331 181 4 0.0000000000000000e+00 -5.1967846932948476e+01 -3.5423765008625537e+01 -1.4000791397288322e+02 0 0 0
6330 181 4 0.0000000000000000e+00 -5.6260281045406401e+01 -2.6733931388215552e+01 -1.3699921547707038e+02 0 0 0
1377 40 2 0.0000000000000000e+00 -4.5725703277613562e+01 -2.4451706112560785e+01 -1.4536775608130284e+02 0 0 0
1379 40 2 0.0000000000000000e+00 -4.0683912386391007e+01 -3.2698768393381599e+01 -1.3435407303118487e+02 0 0 0
1378 40 2 0.0000000000000000e+00 -3.6626174520240625e+01 -2.7528269549834697e+01 -1.4228030115223547e+02 0 0 0
6515 187 4 0.0000000000000000e+00 -9.5574692864240816e+01 -2.4047620729582913e+01 -1.4309437831621244e+02 0 0 0
4745 136 4 0.0000000000000000e+00 -1.0144192026668230e+02 -1.3172290906630273e+01 -1.4588502172750208e+02 0 0 0
6516 187 4 0.0000000000000000e+00 -9.3026806006604588e+01 -2.0096727366688398e+01 -1.3407308271285427e+02 0 0 0
2086 60 2 0.0000000000000000e+00 -7.4922280988163024e+01 -2.0130569214922339e+01 -1.4025062695384764e+02 0 0 0
1632 47 2 0.0000000000000000e+00 -4.0115885263967115e+01 -1.0740351600095083e+01 -1.4706422051467894e+02 0 0 0
1537 44 1 0.0000000000000000e+00 -3.5859400584754241e+01 -2.0621539163262796e+01 -1.3452122506215156e+02 0 0 0
1536 44 2 0.0000000000000000e+00 -3.3518724268933042e+01 -1.0956771032278782e+01 -1.3651451793262763e+02 0 0 0
4544 130 4 0.0000000000000000e+00 -9.0482969405816078e+00 -1.9243389194511433e+01 -1.4229389530246667e+02 0 0 0
4746 136 4 0.0000000000000000e+00 -1.0378393798430979e+02 -6.3764945392632244e+00 -1.3854211137248771e+02 0 0 0
1535 44 2 0.0000000000000000e+00 -3.2272752171662283e+01 -1.1712845302177852e+00 -1.3725580997207203e+02 0 0 0
1617 47 2 0.0000000000000000e+00 -1.1600565686467078e+01 1.7667320362123837e+00 -1.3797713446024201e+02 0 0 0
3018 87 2 0.0000000000000000e+00 -4.3901659025956711e+01 9.9447662494386666e+00 -1.4248896614302978e+02 0 0 0
1533 44 2 0.0000000000000000e+00 -2.2926169835365748e+01 1.6480340467871041e+01 -1.3604409063672520e+02 0 0 0
1534 44 2 0.0000000000000000e+00 -2.7301839901758420e+01 7.6204136429385176e+00 -1.3767429436909188e+02 0 0 0
1618 47 2 0.0000000000000000e+00 -1.7757455956158001e+01 9.4877505735269523e+00 -1.4192668449352738e+02 0 0 0
5533 159 4 0.0000000000000000e+00 -9.9908060319668067e+01 1.8665694681784945e+01 -1.3929839423548938e+02 0 0 0
1804 52 2 0.0000000000000000e+00 -9.3013777021835153e+01 2.7498312988324948e+01 -1.4266400529664384e+02 0 0 0
1803 52 1 0.0000000000000000e+00 -1.0209298548448464e+02 2.8869196342378441e+01 -1.4047137188759444e+02 0 0 0
3017 87 2 0.0000000000000000e+00 -4.2177680166874623e+01 1.9837933282613129e+01 -1.4168418399355397e+02 0 0 0
2660 76 2 0.0000000000000000e+00 -1.4641127844983188e+01 2.7818910580809188e+01 -1.3590177135241154e+02 0 0 0
4200 120 4 0.0000000000000000e+00 -9.4019645927505195e+01 -8.3967773186549778e+01 -1.3053005727583496e+02 0 0 0
2529 73 2 0.0000000000000000e+00 -1.3124343528428935e+02 -6.6812249226011815e+01 -1.2555072762180474e+02 0 0 0
4199 120 4 0.0000000000000000e+00 -8.8807033602258500e+01 -7.5523211453160059e+01 -1.3306008541369059e+02 0 0 0
2539 73 2 0.0000000000000000e+00 -8.6626035918763961e+01 -6.9433985089392948e+01 -1.2057011760246372e+02 0 0 0
2527 73 2 0.0000000000000000e+00 -1.1882153438257916e+02 -5.8646813677489938e+01 -1.3062690488987067e+02 0 0 0
2526 73 2 0.0000000000000000e+00 -1.1480592424031188e+02 -5.3499121008458800e+01 -1.2341899944810268e+02 0 0 0
4197 120 3 0.0000000000000000e+00 -8.1354336875993823e+01 -5.8432236217582343e+01 -1.3080465669812475e+02 0 0 0
4196 120 4 0.0000000000000000e+00 -8.0384782816773452e+01 -5.6299529408908121e+01 -1.2109261058238867e+02 0 0 0
1368 40 2 0.0000000000000000e+00 -7.2163372722212756e+01 -5.9019995657663593e+01 -1.2489367178397458e+02 0 0 0
6494 186 4 0.0000000000000000e+00 -1.0335369512888470e+02 -4.4926600850970303e+01 -1.2056885088366265e+02 0 0 0
2524 73 1 0.0000000000000000e+00 -1.1230838742907173e+02 -3.9450351809857537e+01 -1.2176329762707977e+02 0 0 0
2100 60 2 0.0000000000000000e+00 -9.5518534444498883e+01 -4.7914441891549117e+01 -1.3346022449278456e+02 0 0 0
1370 40 2 0.0000000000000000e+00 -7.5844696645029970e+01 -4.1251214767166239e+01 -1.3190623068271984e+02 0 0 0
1369 40 1 0.0000000000000000e+00 -7.6033727273870909e+01 -4.9650164550045432e+01 -1.2595064897608461e+02 0 0 0
6498 186 4 0.0000000000000000e+00 -6.6381536561163060e+01 -4.0587169010598281e+01 -1.2433162791932403e+02 0 0 0
6499 186 4 0.0000000000000000e+00 -5.9764556066542170e+01 -4.5613223095344317e+01 -1.2973161898147228e+02 0 0 0
1380 40 2 0.0000000000000000e+00 -4.7494172830318263e+01 -3.9553089535835831e+01 -1.3102929786140609e+02 0 0 0
2523 73 2 0.0000000000000000e+00 -1.1041025009284310e+02 -2.9952756573236233e+01 -1.2097157284191944e+02 0 0 0
5544 159 4 0.0000000000000000e+00 -8.4784650019185946e+01 -2.7526139497170561e+01 -1.3231050581651738e+02 0 0 0
5545 159 4 0.0000000000000000e+00 -8.2124404847307375e+01 -2.9297327122136199e+01 -1.2281252933656594e+02 0 0 0
2213 64 2 0.0000000000000000e+00 -7.3844252000831190e+01 -2.6497877994721957e+01 -1.3172753217282147e+02 0 0 0
6497 186 4 0.0000000000000000e+00 -7.5347101301181510e+01 -3.6926107605901876e+01 -1.2297894398623434e+02 0 0 0
6328 181 4 0.0000000000000000e+00 -6.7190600591134768e+01 -2.9510152001539307e+01 -1.2131986298586507e+02 0 0 0
6329 181 4 0.0000000000000000e+00 -6.1036337087170963e+01 -2.9586386298834594e+01 -1.2862654656963286e+02 0 0 0
1381 40 2 0.0000000000000000e+00 -5.0213278342823273e+01 -3.7457123271085408e+01 -1.2145610284834721e+02 0 0 0
1538 44 2 0.0000000000000000e+00 -3.4392850721269106e+01 -2.7407536533845072e+01 -1.2786876280617830e+02 0 0 0
4842 139 4 0.0000000000000000e+00 -2.3665140505691905e+01 -2.6109590666251993e+01 -1.2144058481478655e+02 0 0 0
2522 73 2 0.0000000000000000e+00 -1.1047113910485365e+02 -2.0487897409821514e+01 -1.2065855070610186e+02 0 0 0
6517 187 4 0.0000000000000000e+00 -9.2189108641044143e+01 -1.9887268063546390e+01 -1.2406671288002447e+02 0 0 0
2084 60 2 0.0000000000000000e+00 -8.5794622088276554e+01 -1.2110986739391393e+01 -1.2656667617389178e+02 0 0 0
2085 60 2 0.0000000000000000e+00 -8.0253997803602829e+01 -1.6164265730401013e+01 -1.3325471337746743e+02 0 0 0
2212 64 2 0.0000000000000000e+00 -7.3406276053653585e+01 -1.8665513262226607e+01 -1.2506690043860675e+02 0 0 0
6326 181 4 0.0000000000000000e+00 -5.2586093942267809e+01 -2.3125954640279762e+01 -1.2161021354802806e+02 0 0 0
6324 181 4 0.0000000000000000e+00 -4.7210159737070306e+01 -1.4952340865504629e+01 -1.2997157512545274e+02 0 0 0
6325 181 3 0.0000000000000000e+00 -4.4653093029101704e+01 -2.3991175801467911e+01 -1.2766097908329276e+02 0 0 0
1614 47 1 0.0000000000000000e+00 -1.0777216436646613e+01 -1.2175291495547905e+01 -1.2167050498815851e+02 0 0 0
6300 180 4 0.0000000000000000e+00 -1.4373121070837135e+02 -2.7143591896370656e+00 -1.2438910024104372e+02 0 0 0
4747 136 4 0.0000000000000000e+00 -1.0830105201784295e+02 3.3785777158244809e-02 -1.3268485338739930e+02 0 0 0
4748 136 4 0.0000000000000000e+00 -1.1377351194787003e+02 5.0392290208542867e-01 -1.2413451491362471e+02 0 0 0
2083 60 1 0.0000000000000000e+00 -9.2152289601435200e+01 -8.2462639753932603e+00 -1.2034307406476290e+02 0 0 0
2906 84 2 0.0000000000000000e+00 -7.8760420327052032e+01 -2.6351122923097905e+00 -1.3011364101767805e+02 0 0 0
2907 84 2 0.0000000000000000e+00 -8.4637124849084088e+01 7.8180613247981856e-01 -1.2268177275626995e+02 0 0 0
2211 64 2 0.0000000000000000e+00 -7.6987237280583656e+01 -1.0258760209206381e+01 -1.2111520554673533e+02 0 0 0
6323 181 4 0.0000000000000000e+00 -5.1262041911168872e+01 -6.3425141523762614e+00 -1.3324545892179052e+02 0 0 0
6322 181 4 0.0000000000000000e+00 -5.4141136128773766e+01 2.1232894536442443e-01 -1.2725460751449631e+02 0 0 0
1616 47 2 0.0000000000000000e+00 -7.9887356762059945e+00 6.6021128888607339e-01 -1.2882141966342590e+02 0 0 0
6313 181 4 0.0000000000000000e+00 -1.1834802520103266e+02 1.3834594391128343e+01 -1.2349691903972696e+02 0 0 0
6314 181 4 0.0000000000000000e+00 -1.1127326190885209e+02 9.0034965552779251e+00 -1.2821391147396639e+02 0 0 0
6315 181 4 0.0000000000000000e+00 -1.0085645703679607e+02 7.8510500245694326e+00 -1.2793575522193471e+02 0 0 0
6316 181 4 0.0000000000000000e+00 -9.1096982671713903e+01 9.0147343879388533e+00 -1.3028306965741504e+02 0 0 0
6317 181 4 0.0000000000000000e+00 -8.3786964770906934e+01 1.5576213655080011e+01 -1.2812225728731991e+02 0 0 0
2209 64 1 0.0000000000000000e+00 -7.1520909939847385e+01 8.2580807476746241e+00 -1.2280466047054212e+02 0 0 0
2208 64 2 0.0000000000000000e+00 -6.5971061086597572e+01 1.5822338746858088e+01 -1.2639479256502000e+02 0 0 0
6312 181 4 0.0000000000000000e+00 -1.1977071414204512e+02 2.2355079615255836e+01 -1.2880344985106058e+02 0 0 0
5531 159 4 0.0000000000000000e+00 -1.0764615582511011e+02 1.7971398388104312e+01 -1.2052409814185279e+02 0 0 0
5532 159 4 0.0000000000000000e+00 -1.0560504619720574e+02 1.7007217779533573e+01 -1.3066234240909168e+02 0 0 0
2207 64 2 0.0000000000000000e+00 -5.9162105042644974e+01 2.2893814610285986e+01 -1.2530115263438836e+02 0 0 0
5130 147 4 0.0000000000000000e+00 -4.3884830508410630e+01 2.5401242859215635e+01 -1.2217211954611794e+02 0 0 0
1531 44 2 0.0000000000000000e+00 -2.3640187878004813e+01 2.5378005006269490e+01 -1.2042398950560933e+02 0 0 0
1532 44 2 0.0000000000000000e+00 -1.9953023954170309e+01 2.2656567196221776e+01 -1.2902165415848609e+02 0 0 0
2659 76 2 0.0000000000000000e+00 -7.5556436233713233e+00 2.4064605272690411e+01 -1.2953945353491235e+02 0 0 0
3745 107 4 0.0000000000000000e+00 -1.3299359261768493e+02 -7.9776267913958577e+01 -1.0949696215994038e+02 0 0 0
6246 179 4 0.0000000000000000e+00 -6.2226977530509686e+01 -8.0443805122932815e+01 -1.0963707801346678e+02 0 0 0
3743 107 4 0.0000000000000000e+00 -1.4574410903108696e+02 -6.6896253240699437e+01 -1.0987982945315643e+02 0 0 0
2538 73 1 0.0000000000000000e+00 -8.5770146161518696e+01 -7.7008937215418499e+01 -1.1435578778076179e+02 0 0 0
6248 179 3 0.0000000000000000e+00 -7.7013619116778571e+01 -7.2086952063362389e+01 -1.1059797641496836e+02 0 0 0
6249 179 4 0.0000000000000000e+00 -8.4700320131224373e+01 -6.5926701528912091e+01 -1.0863496735465445e+02 0 0 0
1367 40 2 0.0000000000000000e+00 -6.7371309097432473e+01 -6.5192415867733402e+01 -1.1856391923297191e+02 0 0 0
6247 179 4 0.0000000000000000e+00 -6.7870933286604838e+01 -7.5227935453539232e+01 -1.1608104603410844e+02 0 0 0
1366 40 2 0.0000000000000000e+00 -5.8267327183838219e+01 -6.5477426007186139e+01 -1.1358639711856914e+02 0 0 0
2817 81 2 0.0000000000000000e+00 -1.4461514915466150e+01 -6.7062170047635121e+01 -1.0695546871435536e+02 0 0 0
3742 107 3 0.0000000000000000e+00 -1.4588368671925184e+02 -5.6944689165364856e+01 -1.0795219007410410e+02 0 0 0
2530 73 2 0.0000000000000000e+00 -1.3228460473172234e+02 -6.1654480210279637e+01 -1.1751190170652528e+02 0 0 0
2531 73 1 0.0000000000000000e+00 -1.3561502328394110e+02 -6.1134298890557474e+01 -1.0852771417930023e+02 0 0 0
2540 73 2 0.0000000000000000e+00 -9.3115113464933017e+01 -6.3816521311958439e+01 -1.1533823299328532e+02 0 0 0
2541 73 2 0.0000000000000000e+00 -1.0157858425530748e+02 -5.9679172099261756e+01 -1.1113954681039164e+02 0 0 0
6251 179 4 0.0000000000000000e+00 -9.6772537633844053e+01 -5.1768718245570575e+01 -1.0991317585960589e+02 0 0 0
6250 179 4 0.0000000000000000e+00 -8.9049027418930109e+01 -5.7165345925944671e+01 -1.0689823653886781e+02 0 0 0
4195 120 4 0.0000000000000000e+00 -7.5119174617636062e+01 -5.3329218499350972e+01 -1.1307704480441346e+02 0 0 0
3740 107 4 0.0000000000000000e+00 -1.3326374786390787e+02 -4.7412412250818583e+01 -1.0831547221203543e+02 0 0 0
2525 73 2 0.0000000000000000e+00 -1.1485198863799462e+02 -4.7075936021160118e+01 -1.1625696797986160e+02 0 0 0
6252 179 4 0.0000000000000000e+00 -1.0432601556314640e+02 -4.4975572037971432e+01 -1.1079312718929175e+02 0 0 0
6495 186 4 0.0000000000000000e+00 -9.3231662599434216e+01 -4.4355689684903915e+01 -1.2000052682407822e+02 0 0 0
6496 186 4 0.0000000000000000e+00 -8.3663078925455650e+01 -4.2067163306217914e+01 -1.1926134082383152e+02 0 0 0
1384 40 2 0.0000000000000000e+00 -7.6988970165057864e+01 -4.0264280644060193e+01 -1.1162397898659957e+02 0 0 0
1385 40 2 0.0000000000000000e+00 -8.3872515473298876e+01 -4.5568407499881729e+01 -1.0777651418248949e+02 0 0 0
1383 40 1 0.0000000000000000e+00 -6.6836088272733321e+01 -4.1082862885756640e+01 -1.1170598431892822e+02 0 0 0
1382 40 2 0.0000000000000000e+00 -5.8269866912137410e+01 -4.0002937502183912e+01 -1.1589027302828173e+02 0 0 0
4844 139 4 0.0000000000000000e+00 -1.2741519093530147e+01 -3.8770974781800149e+01 -1.1399634336737320e+02 0 0 0
6493 186 3 0.0000000000000000e+00 -1.0361842556369756e+02 -3.6095453199628068e+01 -1.1558985652441285e+02 0 0 0
6492 186 4 0.0000000000000000e+00 -9.9884236529237540e+01 -2.8697291377856718e+01 -1.0975481062794682e+02 0 0 0
5546 159 4 0.0000000000000000e+00 -7.6346181993990598e+01 -2.9797800018603304e+01 -1.1480123277447707e+02 0 0 0
5547 159 4 0.0000000000000000e+00 -6.7703800743235760e+01 -2.8945819292102446e+01 -1.0957677298782194e+02 0 0 0
1540 44 2 0.0000000000000000e+00 -4.5406190032087885e+01 -3.3560394424772383e+01 -1.1200591455271064e+02 0 0 0
1539 44 2 0.0000000000000000e+00 -3.9795649131541381e+01 -3.0593194823389883e+01 -1.1937074942959485e+02 0 0 0
5552 159 4 0.0000000000000000e+00 -2.8470581162842159e+01 -2.8153039980350272e+01 -1.0830191642819361e+02 0 0 0
4843 139 4 0.0000000000000000e+00 -2.0577672310082797e+01 -3.2494767822238501e+01 -1.1438391817862670e+02 0 0 0
2521 73 2 0.0000000000000000e+00 -1.1134806619064743e+02 -1.1904031188842620e+01 -1.1601033661589774e+02 0 0 0
6518 187 4 0.0000000000000000e+00 -8.5042929365443413e+01 -1.7978444279632711e+01 -1.1750988806472061e+02 0 0 0
6519 187 4 0.0000000000000000e+00 -7.7163999338250136e+01 -1.7456737863066966e+01 -1.1223522536827687e+02 0 0 0
6520 187 4 0.0000000000000000e+00 -6.9661665248375741e+01 -1.1873877571741588e+01 -1.0838992261693086e+02 0 0 0
6327 181 4 0.0000000000000000e+00 -6.1010109006914043e+01 -2.2905363160621501e+01 -1.1646230828083129e+02 0 0 0
5550 159 4 0.0000000000000000e+00 -4.4877621378374990e+01 -2.3603529113739995e+01 -1.0734311624495997e+02 0 0 0
5551 159 4 0.0000000000000000e+00 -3.5803489835399297e+01 -2.2397677833251429e+01 -1.1192005639148371e+02 0 0 0