LAMMPS data file via write_data, version 5 Jun 2019, timestep = 300000000

7000 atoms
4 atom types
7284 bonds
3 bond types
6600 angles
2 angle types

-5.0000000000000000e+02 5.0000000000000000e+02 xlo xhi
-5.0000000000000000e+02 5.0000000000000000e+02 ylo yhi
-5.0000000000000000e+02 5.0000000000000000e+02 zlo zhi

Masses

1 1000
2 1000
3 1000
4 1000

Pair Coeffs # lj/cut

1 0.178 10
2 0.178 10
3 0.178 10
4 0.178 10

Angle Coeffs # cosine

1 2
2 2

Atoms # full

5914 169 4 0.0000000000000000e+00 -8.3749082891902574e+01 2.0269051140323477e+01 -2.1513354030718153e+02 0 0 0
5915 169 4 0.0000000000000000e+00 -8.8268854088724851e+01 1.4103990474057547e+01 -2.2203970633911445e+02 0 0 0
2066 60 2 0.0000000000000000e+00 -8.3155402439334452e+01 2.8829814509544548e+01 -2.1902563184340903e+02 0 0 0
5913 169 4 0.0000000000000000e+00 -8.5162702880383577e+01 2.6397263609467785e+01 -2.0700221799707694e+02 0 0 0
2072 60 2 0.0000000000000000e+00 -1.0856484513749720e+02 5.3662018984342392e+00 -1.9269274091096722e+02 0 0 0
2071 60 2 0.0000000000000000e+00 -1.0543702237192306e+02 1.4735157439466059e+01 -1.9433099905516258e+02 0 0 0
2070 60 2 0.0000000000000000e+00 -1.0000754666089439e+02 2.2980738635746345e+01 -1.9688181554370749e+02 0 0 0
2069 60 1 0.0000000000000000e+00 -9.7342271152443615e+01 3.2158625780697172e+01 -2.0051561529092220e+02 0 0 0
5912 169 3 0.0000000000000000e+00 -8.8160020530227968e+01 2.6311554159177952e+01 -1.9728792465087886e+02 0 0 0
5911 169 4 0.0000000000000000e+00 -8.9544009625824387e+01 3.3037408902813063e+01 -1.9033472825401162e+02 0 0 0
2233 64 2 0.0000000000000000e+00 -8.1236003934114123e+01 -6.7524338190979364e+01 -1.7424727376433606e+02 0 0 0
4726 136 4 0.0000000000000000e+00 -9.5503582264987195e+00 -6.7804972163563079e+01 -1.7469336931850702e+02 0 0 0
2232 64 2 0.0000000000000000e+00 -8.5419464889399976e+01 -5.8437237480385285e+01 -1.7677148940261739e+02 0 0 0
2231 64 2 0.0000000000000000e+00 -8.1975234089517784e+01 -4.9723811671929987e+01 -1.7531757922594875e+02 0 0 0
4727 136 4 0.0000000000000000e+00 -1.2785297532893903e+01 -5.8508518826963261e+01 -1.7811102240045173e+02 0 0 0
4728 136 4 0.0000000000000000e+00 -1.8228873338289770e+01 -5.1094438727473282e+01 -1.7378739195143274e+02 0 0 0
4731 136 4 0.0000000000000000e+00 -1.2156166545326196e+01 -2.6859856135282218e+01 -1.8353341101265735e+02 0 0 0
4730 136 4 0.0000000000000000e+00 -1.3456808146236867e+01 -3.3509410074934451e+01 -1.7605876236711850e+02 0 0 0
4550 130 4 0.0000000000000000e+00 -3.4630384403963902e+01 -1.2508778777373223e+01 -1.7875968036994041e+02 0 0 0
4732 136 4 0.0000000000000000e+00 -1.0137111174227725e+01 -1.7418468346784572e+01 -1.8643090979862262e+02 0 0 0
4733 136 4 0.0000000000000000e+00 -1.1669870385415551e+01 -8.2307841573180411e+00 -1.8251355271732018e+02 0 0 0
2074 60 2 0.0000000000000000e+00 -1.1228651958439104e+02 -5.5505435491077009e+00 -1.7695574061286146e+02 0 0 0
2073 60 2 0.0000000000000000e+00 -1.0791371234888884e+02 -3.4970063009188640e-01 -1.8461438925829066e+02 0 0 0
4734 136 4 0.0000000000000000e+00 -1.3348894584558655e+01 -1.2214987226222529e+00 -1.7578759287965286e+02 0 0 0
6308 181 4 0.0000000000000000e+00 -1.0155385049318696e+02 1.6510300564853537e+01 -1.7774285174515430e+02 0 0 0
6301 181 4 0.0000000000000000e+00 -5.7042017626058694e+01 1.5759396712588659e+01 -1.7926131656488616e+02 0 0 0
5909 169 4 0.0000000000000000e+00 -1.0412435071637724e+02 2.9707650178809999e+01 -1.7729458019374593e+02 0 0 0
6307 181 4 0.0000000000000000e+00 -9.2834319725721016e+01 2.1611613875632543e+01 -1.8007481114779452e+02 0 0 0
5910 169 4 0.0000000000000000e+00 -9.6893701771620456e+01 2.9347919049789361e+01 -1.8444884975128329e+02 0 0 0
6306 181 4 0.0000000000000000e+00 -8.6581566729430023e+01 2.9764993024871146e+01 -1.7897759763512119e+02 0 0 0
4445 127 4 0.0000000000000000e+00 -1.0380382643080873e+02 -6.4142190944247417e+01 -1.6750094288543320e+02 0 0 0
2235 64 2 0.0000000000000000e+00 -7.8113316020142676e+01 -6.5697317681947766e+01 -1.6101610418467050e+02 0 0 0
2234 64 2 0.0000000000000000e+00 -7.5117525179839191e+01 -7.2378901451017299e+01 -1.6747032338509496e+02 0 0 0
4444 127 4 0.0000000000000000e+00 -9.8155946171169234e+01 -5.7059030855252189e+01 -1.7096359774885599e+02 0 0 0
4443 127 4 0.0000000000000000e+00 -9.3546218782680782e+01 -4.9185274290531936e+01 -1.6688932121438745e+02 0 0 0
2228 64 2 0.0000000000000000e+00 -9.1478856653079561e+01 -6.0038449273199355e+01 -1.6052697079870424e+02 0 0 0
2230 64 1 0.0000000000000000e+00 -7.7143829989333014e+01 -4.8764500712951232e+01 -1.6700951444747267e+02 0 0 0
2229 64 2 0.0000000000000000e+00 -8.5069925227813115e+01 -5.1789806427319377e+01 -1.6231828587199780e+02 0 0 0
6335 181 4 0.0000000000000000e+00 -6.8227187269281160e+01 -5.6513509867926459e+01 -1.6608454820093576e+02 0 0 0
4442 127 3 0.0000000000000000e+00 -8.6237369697877270e+01 -4.2196550829350251e+01 -1.6763965943250830e+02 0 0 0
4441 127 4 0.0000000000000000e+00 -7.9219965766199650e+01 -3.5365103207671986e+01 -1.7051975784940208e+02 0 0 0
4742 136 4 0.0000000000000000e+00 -6.8434169296985061e+01 -3.8134699307982189e+01 -1.6521991031556888e+02 0 0 0
4741 136 4 0.0000000000000000e+00 -5.8342921793159277e+01 -3.5866266499043405e+01 -1.6640577543285673e+02 0 0 0
1631 47 2 0.0000000000000000e+00 -4.9793457352362509e+01 -4.3888438595788230e+01 -1.6300810465971122e+02 0 0 0
1632 47 2 0.0000000000000000e+00 -4.0264506719162561e+01 -4.6010104911310833e+01 -1.6127543313252571e+02 0 0 0
1633 47 2 0.0000000000000000e+00 -3.0922512090720041e+01 -4.5183585986799351e+01 -1.6053205657453853e+02 0 0 0
1634 47 2 0.0000000000000000e+00 -2.1812525867318854e+01 -4.1597700931709475e+01 -1.6087202377456467e+02 0 0 0
4729 136 3 0.0000000000000000e+00 -1.7085324171546262e+01 -4.1562676904766292e+01 -1.7076584814429791e+02 0 0 0
1635 47 1 0.0000000000000000e+00 -1.2401928982390563e+01 -4.0014359801556907e+01 -1.6102953030708827e+02 0 0 0
4439 127 4 0.0000000000000000e+00 -7.6856505641535264e+01 -2.0913635113647718e+01 -1.7332501129368666e+02 0 0 0
4440 127 4 0.0000000000000000e+00 -7.1369789693361582e+01 -2.8801507032077989e+01 -1.6969362969278887e+02 0 0 0
4740 136 4 0.0000000000000000e+00 -5.2800428279185518e+01 -2.7732379147570086e+01 -1.6461386754147003e+02 0 0 0
3019 87 2 0.0000000000000000e+00 -3.3215121688862880e+01 -2.4293603025854583e+01 -1.6694153237518191e+02 0 0 0
3020 87 2 0.0000000000000000e+00 -2.4482514875759737e+01 -2.9356952804669472e+01 -1.6820193204136524e+02 0 0 0
4438 127 4 0.0000000000000000e+00 -7.8303014104416334e+01 -1.1360856606382756e+01 -1.7310446865377537e+02 0 0 0
1627 47 2 0.0000000000000000e+00 -6.7452219133373575e+01 -1.8213358469155946e+01 -1.6098091387788284e+02 0 0 0
4739 136 4 0.0000000000000000e+00 -4.8708490676969163e+01 -1.8865093046953522e+01 -1.6838083670225978e+02 0 0 0
3018 87 2 0.0000000000000000e+00 -3.9251846617419808e+01 -1.7874327606196285e+01 -1.6316006316835555e+02 0 0 0
4738 136 4 0.0000000000000000e+00 -4.8310845232453360e+01 -9.1895814263731861e+00 -1.6886927779752617e+02 0 0 0
4549 130 4 0.0000000000000000e+00 -3.0670133856299458e+01 -1.2937051453486124e+01 -1.6927866708467718e+02 0 0 0
2075 60 2 0.0000000000000000e+00 -1.1460800788677565e+02 -6.7832622219611398e+00 -1.6753025224762234e+02 0 0 0
6310 181 4 0.0000000000000000e+00 -1.0665186532702602e+02 5.2745045471671377e+00 -1.6426856342256747e+02 0 0 0
5537 159 4 0.0000000000000000e+00 -9.4489673758763161e+01 -3.2530955768741303e+00 -1.6249516383196485e+02 0 0 0
5536 159 4 0.0000000000000000e+00 -9.4890818142849895e+01 6.2449560795846546e+00 -1.6532507789844956e+02 0 0 0
4437 127 4 0.0000000000000000e+00 -8.1227074677637631e+01 -2.0819396486654300e+00 -1.6984187151360624e+02 0 0 0
4436 127 4 0.0000000000000000e+00 -7.9640224488205192e+01 -2.7271614207761790e+00 -1.6085216315240723e+02 0 0 0
1624 47 2 0.0000000000000000e+00 -6.2830493851221320e+01 2.4270164785645516e+00 -1.6091912069583387e+02 0 0 0
1625 47 2 0.0000000000000000e+00 -6.9837307107143516e+01 -4.3884070537701634e+00 -1.6140580640666218e+02 0 0 0
4737 136 4 0.0000000000000000e+00 -3.9763848216194752e+01 -4.6847014501181148e+00 -1.6783487200194799e+02 0 0 0
4736 136 3 0.0000000000000000e+00 -3.0620320289705852e+01 -3.3997448417964110e-01 -1.6756000096553245e+02 0 0 0
4735 136 4 0.0000000000000000e+00 -2.0892165587654631e+01 1.3297978025193076e+00 -1.6960332906570727e+02 0 0 0
6309 181 4 0.0000000000000000e+00 -1.0194483724552757e+02 8.0640933941465907e+00 -1.7296810723525729e+02 0 0 0
5535 159 4 0.0000000000000000e+00 -9.4911803138838451e+01 1.6432015902849933e+01 -1.6769129352705792e+02 0 0 0
580 17 2 0.0000000000000000e+00 -1.2972341764221477e+02 2.7337909593371208e+01 -1.6154080201187341e+02 0 0 0
5908 169 4 0.0000000000000000e+00 -1.0726664768741115e+02 2.7859655058235770e+01 -1.6836617251946808e+02 0 0 0
5534 159 3 0.0000000000000000e+00 -9.8757404451294619e+01 2.5671281959883625e+01 -1.6453441730027015e+02 0 0 0
6303 181 4 0.0000000000000000e+00 -6.5324178318166631e+01 3.1389296221851904e+01 -1.7200336407264962e+02 0 0 0
6302 181 4 0.0000000000000000e+00 -6.0261602497087928e+01 2.2740621388356114e+01 -1.7324604629437817e+02 0 0 0
2226 64 2 0.0000000000000000e+00 -9.4261055162166727e+01 -7.5059967613139776e+01 -1.4877953970764409e+02 0 0 0
2227 64 2 0.0000000000000000e+00 -9.3913623450099948e+01 -6.6657835770660142e+01 -1.5383646404041053e+02 0 0 0
1375 40 2 0.0000000000000000e+00 -7.6477226671612087e+01 -6.9478382360180888e+01 -1.5070167713178142e+02 0 0 0
2236 64 2 0.0000000000000000e+00 -8.1203129390226934e+01 -5.7383620367844792e+01 -1.5590300405359031e+02 0 0 0
2237 64 1 0.0000000000000000e+00 -7.7863543125400426e+01 -4.8429796582829297e+01 -1.5249220912844345e+02 0 0 0
6334 181 4 0.0000000000000000e+00 -6.6743983548863511e+01 -5.1765452130589033e+01 -1.5751500261258971e+02 0 0 0
6333 181 4 0.0000000000000000e+00 -6.8784146294369435e+01 -5.6828553178679442e+01 -1.4876267917792859e+02 0 0 0
4744 136 4 0.0000000000000000e+00 -7.8782789015026950e+01 -3.7413757562199692e+01 -1.4951548669096067e+02 0 0 0
4743 136 3 0.0000000000000000e+00 -7.2380686814861122e+01 -3.9460387582409616e+01 -1.5638836101802866e+02 0 0 0
1630 47 2 0.0000000000000000e+00 -5.4529682071276149e+01 -3.8699983896492945e+01 -1.5576174665789947e+02 0 0 0
5426 156 4 0.0000000000000000e+00 -4.1623360610546420e+01 -4.4294355009359940e+01 -1.5102726878554432e+02 0 0 0
5427 156 4 0.0000000000000000e+00 -3.5756844173926062e+01 -3.6445107948902923e+01 -1.5043588986054388e+02 0 0 0
5540 159 4 0.0000000000000000e+00 -7.6602115975446139e+01 -2.1534037947612820e+01 -1.5099954973995284e+02 0 0 0
1628 47 1 0.0000000000000000e+00 -6.0261696055876968e+01 -2.4247335730489084e+01 -1.5724710691135073e+02 0 0 0
1629 47 2 0.0000000000000000e+00 -6.1451108510127469e+01 -3.2875268395817763e+01 -1.5239163102708534e+02 0 0 0
3021 87 1 0.0000000000000000e+00 -1.8577488794058148e+01 -3.0276378579360266e+01 -1.5907247941940292e+02 0 0 0
3022 87 2 0.0000000000000000e+00 -1.1265337672395200e+01 -3.0935495422849705e+01 -1.5326419593280662e+02 0 0 0
5538 159 4 0.0000000000000000e+00 -9.1645666733893052e+01 -1.1578703762497256e+01 -1.5877423603501268e+02 0 0 0
5539 159 4 0.0000000000000000e+00 -8.4997187022189920e+01 -1.5569724255204502e+01 -1.5242695117116659e+02 0 0 0
1626 47 2 0.0000000000000000e+00 -7.5583380199280199e+01 -1.2433326794610368e+01 -1.5936542514961425e+02 0 0 0
5541 159 3 0.0000000000000000e+00 -6.7062436374289305e+01 -1.9541095576096861e+01 -1.4928157712401827e+02 0 0 0
3014 87 1 0.0000000000000000e+00 -7.0302188671317211e+01 -7.2341259656170580e+00 -1.4805075196899233e+02 0 0 0
5542 159 4 0.0000000000000000e+00 -5.7209441736771815e+01 -1.6563943604212131e+01 -1.4879324721378438e+02 0 0 0
3016 87 2 0.0000000000000000e+00 -5.3122487553496939e+01 -8.3029638599660647e+00 -1.5725034069395915e+02 0 0 0
5543 159 4 0.0000000000000000e+00 -4.8571148236597203e+01 -2.0221725358673496e+01 -1.4753685221894787e+02 0 0 0
3017 87 2 0.0000000000000000e+00 -4.4422736383968399e+01 -1.1999991998837864e+01 -1.5722497875626948e+02 0 0 0
4548 130 4 0.0000000000000000e+00 -2.9075282851146898e+01 -1.6576842650375617e+01 -1.5945445677144238e+02 0 0 0
4547 130 3 0.0000000000000000e+00 -1.9577011081799153e+01 -1.9542666333130192e+01 -1.5618630373295039e+02 0 0 0
4546 130 4 0.0000000000000000e+00 -1.4620251856861069e+01 -1.9841138480924872e+01 -1.4793961968685812e+02 0 0 0
2076 60 1 0.0000000000000000e+00 -1.1054440889962483e+02 -3.0005254711253624e+00 -1.5901805613746873e+02 0 0 0
2077 60 2 0.0000000000000000e+00 -1.1028237311099826e+02 3.5945468381148959e-01 -1.4984715117044578e+02 0 0 0
6311 181 3 0.0000000000000000e+00 -1.0218392868510608e+02 3.6060664379015455e+00 -1.5573654476401157e+02 0 0 0
6312 181 4 0.0000000000000000e+00 -9.4598278670081882e+01 3.0841675514150220e+00 -1.4946499372507088e+02 0 0 0
4435 127 3 0.0000000000000000e+00 -7.7502578738852222e+01 -1.0230530858029295e-01 -1.5192362109616167e+02 0 0 0
3015 87 2 0.0000000000000000e+00 -6.0796653031784025e+01 -6.7127957200758681e+00 -1.5146596922060738e+02 0 0 0
1623 47 2 0.0000000000000000e+00 -5.3692658290656517e+01 2.2589316485505497e+00 -1.5772080520724398e+02 0 0 0
1622 47 2 0.0000000000000000e+00 -4.3891130759935976e+01 2.4323453321772943e+00 -1.5720927452130357e+02 0 0 0
1621 47 1 0.0000000000000000e+00 -3.4214812931971721e+01 1.1520142919007095e+00 -1.5732676677397069e+02 0 0 0
1620 47 2 0.0000000000000000e+00 -2.5542030548921858e+01 -4.5999259312799685e+00 -1.5777122868846732e+02 0 0 0
1619 47 2 0.0000000000000000e+00 -3.0118970780750967e+01 -6.6971376367553610e+00 -1.4879125661609257e+02 0 0 0
6336 182 4 0.0000000000000000e+00 -1.6016822095516170e+02 1.9264954599678163e+01 -1.5757062585958505e+02 0 0 0
1802 52 2 0.0000000000000000e+00 -1.1228070985667469e+02 1.5769479868193969e+01 -1.5440758505826210e+02 0 0 0
6337 182 4 0.0000000000000000e+00 -1.5670772912580316e+02 2.1815892224028136e+01 -1.4849577968067345e+02 0 0 0
1801 52 2 0.0000000000000000e+00 -1.1907595680555831e+02 2.1346246813958164e+01 -1.4992128384691549e+02 0 0 0
579 17 2 0.0000000000000000e+00 -1.3026921295576645e+02 2.8367254069394683e+01 -1.5210470087337404e+02 0 0 0
1803 52 1 0.0000000000000000e+00 -1.0360994134848117e+02 2.0820015966893557e+01 -1.5533905692644004e+02 0 0 0
5907 169 4 0.0000000000000000e+00 -1.1129303110024632e+02 2.9876289332471185e+01 -1.5950332914474367e+02 0 0 0
5906 169 4 0.0000000000000000e+00 -1.1374475910609465e+02 3.2102024660674218e+01 -1.4969924589315872e+02 0 0 0
1804 52 2 0.0000000000000000e+00 -1.0044298084664452e+02 2.8860000042355626e+01 -1.5026722518342831e+02 0 0 0
2225 64 2 0.0000000000000000e+00 -9.6628789315403637e+01 -8.1667976937958798e+01 -1.4143973899815160e+02 0 0 0
2224 64 2 0.0000000000000000e+00 -9.3930204230385584e+01 -8.8136698898278539e+01 -1.3362965630069823e+02 0 0 0
1372 40 2 0.0000000000000000e+00 -9.0544836266771384e+01 -7.7416049889344322e+01 -1.3470287281855420e+02 0 0 0
1373 40 2 0.0000000000000000e+00 -8.8649578266138789e+01 -6.7938147780752772e+01 -1.3690782673135851e+02 0 0 0
1374 40 2 0.0000000000000000e+00 -8.3050641972592871e+01 -6.4838749377015020e+01 -1.4459565720903407e+02 0 0 0
1376 40 1 0.0000000000000000e+00 -6.8641337229438946e+01 -7.1066794455095604e+01 -1.4418125373011927e+02 0 0 0
1377 40 2 0.0000000000000000e+00 -6.4739587051237748e+01 -6.9759870104907023e+01 -1.3505288824917463e+02 0 0 0
2239 64 2 0.0000000000000000e+00 -7.9273782654966567e+01 -5.5178604900994223e+01 -1.3725782606183111e+02 0 0 0
6332 181 3 0.0000000000000000e+00 -6.2363823548852928e+01 -6.1257319840491014e+01 -1.4285427484707392e+02 0 0 0
2238 64 2 0.0000000000000000e+00 -7.4766811495060750e+01 -4.9436466925631805e+01 -1.4350041411318355e+02 0 0 0
6331 181 4 0.0000000000000000e+00 -5.6340991956379156e+01 -5.6600269257449540e+01 -1.3603401856614232e+02 0 0 0
2216 64 1 0.0000000000000000e+00 -6.8540082544274370e+01 -4.5317230869819532e+01 -1.3403312880222299e+02 0 0 0
2092 60 2 0.0000000000000000e+00 -6.0823701371382228e+01 -4.2475061881359537e+01 -1.4001752208878753e+02 0 0 0
2091 60 2 0.0000000000000000e+00 -5.3638346552648116e+01 -3.6720563263402099e+01 -1.4054626374181345e+02 0 0 0
5429 156 3 0.0000000000000000e+00 -4.3461924888936593e+01 -3.9041283752367498e+01 -1.3971088285736965e+02 0 0 0
5431 156 4 0.0000000000000000e+00 -2.6419858711897859e+01 -4.8131696537559826e+01 -1.4168716580256034e+02 0 0 0
5430 156 4 0.0000000000000000e+00 -3.3807917336799036e+01 -4.0952819334786589e+01 -1.4121476485362362e+02 0 0 0
5432 156 4 0.0000000000000000e+00 -2.2034099257630906e+01 -4.3374715315943341e+01 -1.3404741721289076e+02 0 0 0
5433 156 4 0.0000000000000000e+00 -1.3014804335318013e+01 -4.5139894968514675e+01 -1.3640095868426894e+02 0 0 0
4745 136 4 0.0000000000000000e+00 -8.2366059279314527e+01 -2.9182030670772058e+01 -1.4460784754255315e+02 0 0 0
4746 136 4 0.0000000000000000e+00 -8.7553268543507443e+01 -2.1331818579675080e+01 -1.4193996225828974e+02 0 0 0
2094 60 2 0.0000000000000000e+00 -6.8906042657068596e+01 -2.9681574428246769e+01 -1.4035284330520358e+02 0 0 0
2095 60 2 0.0000000000000000e+00 -7.5274227790567053e+01 -2.1729707552033108e+01 -1.3901936343733573e+02 0 0 0
2093 60 2 0.0000000000000000e+00 -6.1425361070322253e+01 -3.3321815925568465e+01 -1.3539943834810728e+02 0 0 0
5544 159 4 0.0000000000000000e+00 -5.0012873408018898e+01 -2.3379767127670991e+01 -1.3809628994920138e+02 0 0 0
5428 156 4 0.0000000000000000e+00 -4.2570660362710846e+01 -3.0599608146634118e+01 -1.4491167439238785e+02 0 0 0
1616 47 2 0.0000000000000000e+00 -3.4441370760895730e+01 -2.5470338561367484e+01 -1.3477321680342527e+02 0 0 0
4545 130 4 0.0000000000000000e+00 -9.5969638815710745e+00 -2.2599703208750405e+01 -1.3960227512398714e+02 0 0 0
3011 87 2 0.0000000000000000e+00 -9.8067155643253457e+01 -8.9906799607525958e+00 -1.4417865156317137e+02 0 0 0
4747 136 4 0.0000000000000000e+00 -9.1070928439731460e+01 -1.6087357447040141e+01 -1.3487641332175983e+02 0 0 0
3012 87 2 0.0000000000000000e+00 -8.8156657503747340e+01 -9.6900763423029268e+00 -1.4242091589665586e+02 0 0 0
6511 187 4 0.0000000000000000e+00 -5.9451318920619727e+01 -1.8063642129220742e+01 -1.3634892390057919e+02 0 0 0
1618 47 2 0.0000000000000000e+00 -3.7817902876357550e+01 -1.0055918745572100e+01 -1.4318626249503495e+02 0 0 0
1617 47 2 0.0000000000000000e+00 -3.9401069975022118e+01 -1.7820205100342985e+01 -1.3772719756050284e+02 0 0 0
2078 60 2 0.0000000000000000e+00 -1.0697175196003674e+02 2.0132989670117492e+00 -1.4054095673446855e+02 0 0 0
2079 60 2 0.0000000000000000e+00 -9.9777354476060665e+01 2.6744859995441148e+00 -1.3329833447752833e+02 0 0 0
3013 87 2 0.0000000000000000e+00 -7.8264392721557314e+01 -6.0389906382827476e+00 -1.4149935291179227e+02 0 0 0
6313 181 4 0.0000000000000000e+00 -8.5353679695393524e+01 2.1810043791448699e+00 -1.4553579312528825e+02 0 0 0
6314 181 4 0.0000000000000000e+00 -8.4071032754796732e+01 2.2092112699426192e+00 -1.3531168794642687e+02 0 0 0
4434 127 4 0.0000000000000000e+00 -7.4816288205447563e+01 6.2273312488527033e+00 -1.4448445891836815e+02 0 0 0
1800 52 2 0.0000000000000000e+00 -1.1956248277647192e+02 1.4872130632506252e+01 -1.4275692535105969e+02 0 0 0
1799 52 2 0.0000000000000000e+00 -1.2632733241844006e+02 1.6929956150645889e+01 -1.3549568590937949e+02 0 0 0
4433 127 4 0.0000000000000000e+00 -7.4595254512308642e+01 1.3624076144459744e+01 -1.3720178208593194e+02 0 0 0
6338 182 4 0.0000000000000000e+00 -1.5216533180525147e+02 2.9725899077010546e+01 -1.4420572966190110e+02 0 0 0
5905 169 3 0.0000000000000000e+00 -1.1904134627235469e+02 2.8826329176807963e+01 -1.4184420922551448e+02 0 0 0
5904 169 4 0.0000000000000000e+00 -1.1247114298300221e+02 2.2948148589687918e+01 -1.3783997204094516e+02 0 0 0
4432 127 4 0.0000000000000000e+00 -7.4679758352689461e+01 2.3383433710692525e+01 -1.3458791239873065e+02 0 0 0
4431 127 4 0.0000000000000000e+00 -7.4086074464402728e+01 3.3576081544937509e+01 -1.3632493209696329e+02 0 0 0
6508 186 4 0.0000000000000000e+00 -7.7088839367923555e+01 -9.6007505552580568e+01 -1.2644506533132493e+02 0 0 0
1371 40 2 0.0000000000000000e+00 -9.1600701240041658e+01 -7.8430619231897765e+01 -1.2460398728817424e+02 0 0 0
2223 64 1 0.0000000000000000e+00 -8.7835909791799466e+01 -8.7210320526855753e+01 -1.2658980661506216e+02 0 0 0
6507 186 3 0.0000000000000000e+00 -7.6206904146922895e+01 -8.5860461898513805e+01 -1.2701707153836718e+02 0 0 0
2222 64 2 0.0000000000000000e+00 -8.2593459510870062e+01 -8.1637456430803965e+01 -1.2013160910882459e+02 0 0 0
6506 186 4 0.0000000000000000e+00 -7.1043249690393466e+01 -8.0948039300620209e+01 -1.2072888610671600e+02 0 0 0
2220 64 2 0.0000000000000000e+00 -7.4186050978690815e+01 -6.5371426492909308e+01 -1.2170230617545243e+02 0 0 0
1378 40 2 0.0000000000000000e+00 -5.8253921408006846e+01 -6.6713468944437835e+01 -1.2824701873666257e+02 0 0 0
1379 40 2 0.0000000000000000e+00 -5.0276279449296403e+01 -6.7786097018180925e+01 -1.2195118321116190e+02 0 0 0
2240 64 2 0.0000000000000000e+00 -7.6095391016916395e+01 -5.5573163851904880e+01 -1.2812538198266486e+02 0 0 0
6502 186 4 0.0000000000000000e+00 -6.4153901218021034e+01 -4.9563535992027276e+01 -1.2036717076980463e+02 0 0 0
6503 186 4 0.0000000000000000e+00 -6.3032936095308315e+01 -5.9259383878141165e+01 -1.2017551598595055e+02 0 0 0
6330 181 4 0.0000000000000000e+00 -5.0853094193226973e+01 -5.0000332276285299e+01 -1.3094723808114730e+02 0 0 0
2521 73 2 0.0000000000000000e+00 -1.3227265557402120e+02 -3.5876836706589216e+01 -1.2591143287351689e+02 0 0 0
2218 64 2 0.0000000000000000e+00 -7.7263094170679580e+01 -4.6729484356727951e+01 -1.1979855260025360e+02 0 0 0
2217 64 2 0.0000000000000000e+00 -7.5365888981126815e+01 -4.3036812388171214e+01 -1.2874783089209942e+02 0 0 0
6501 186 4 0.0000000000000000e+00 -6.7690469633889919e+01 -4.0171091291288676e+01 -1.2170831904588422e+02 0 0 0
6500 186 3 0.0000000000000000e+00 -6.8756791848805932e+01 -3.4853899687145393e+01 -1.3037100293408230e+02 0 0 0
2215 64 2 0.0000000000000000e+00 -6.0432448933101504e+01 -4.2566102315081118e+01 -1.2936427993000672e+02 0 0 0
2214 64 2 0.0000000000000000e+00 -5.3643376770152877e+01 -4.0316511173975513e+01 -1.2319927139534637e+02 0 0 0
6329 181 4 0.0000000000000000e+00 -4.3777840678088189e+01 -4.3707710855801913e+01 -1.2676333173599899e+02 0 0 0
6328 181 4 0.0000000000000000e+00 -4.0413647913070342e+01 -3.4693881840594827e+01 -1.2303823851482966e+02 0 0 0
4841 139 3 0.0000000000000000e+00 -2.0885350661322445e+01 -3.9040138066777089e+01 -1.2187693419259487e+02 0 0 0
4842 139 4 0.0000000000000000e+00 -1.3390678287422654e+01 -3.8969815284636255e+01 -1.2792686985297760e+02 0 0 0
2522 73 2 0.0000000000000000e+00 -1.3541969687916588e+02 -2.7136079540989059e+01 -1.2167766050905331e+02 0 0 0
6496 186 4 0.0000000000000000e+00 -1.0152835977090243e+02 -2.3640133082135844e+01 -1.2147721330975945e+02 0 0 0
6497 186 4 0.0000000000000000e+00 -9.2528833264245918e+01 -2.3685344159603368e+01 -1.2680008589446415e+02 0 0 0
6498 186 4 0.0000000000000000e+00 -8.7311042550823856e+01 -3.2383488908685841e+01 -1.2890285749626153e+02 0 0 0
2096 60 2 0.0000000000000000e+00 -8.1250307997062095e+01 -2.1922042249122754e+01 -1.3071209862658077e+02 0 0 0
6499 186 4 0.0000000000000000e+00 -7.7799796537252931e+01 -3.1277663343197400e+01 -1.3256182162919006e+02 0 0 0
2090 60 1 0.0000000000000000e+00 -4.9693269205293404e+01 -3.3152717309374125e+01 -1.3233857843466288e+02 0 0 0
5545 159 4 0.0000000000000000e+00 -5.5468483479757964e+01 -2.6254085118931293e+01 -1.2990399603621006e+02 0 0 0
5546 159 4 0.0000000000000000e+00 -6.1136515078269767e+01 -3.2319280456581616e+01 -1.2403162995764758e+02 0 0 0
2089 60 2 0.0000000000000000e+00 -4.3506432190588093e+01 -2.6790889950720850e+01 -1.2862124927493531e+02 0 0 0
2088 60 2 0.0000000000000000e+00 -4.8395817396119845e+01 -2.1487460065267346e+01 -1.2244581354511706e+02 0 0 0
1615 47 2 0.0000000000000000e+00 -3.0690512398620800e+01 -3.1064469361029783e+01 -1.2757934859894986e+02 0 0 0
1614 47 1 0.0000000000000000e+00 -2.4125626503314816e+01 -2.8002519152122144e+01 -1.2116564554748390e+02 0 0 0
6327 181 4 0.0000000000000000e+00 -3.4784866468722754e+01 -2.6748284080082652e+01 -1.1942453885401190e+02 0 0 0
2523 73 2 0.0000000000000000e+00 -1.3277927230945616e+02 -1.6880644306020677e+01 -1.2121395234726336e+02 0 0 0
4748 136 4 0.0000000000000000e+00 -9.6756597235816486e+01 -1.4668352618461512e+01 -1.2700555112075075e+02 0 0 0
2097 60 1 0.0000000000000000e+00 -8.4108288896028881e+01 -2.0488847195766407e+01 -1.2202906859563419e+02 0 0 0
6513 187 4 0.0000000000000000e+00 -7.1632934784446022e+01 -1.8406320682819498e+01 -1.2223413933461632e+02 0 0 0
6512 187 4 0.0000000000000000e+00 -6.4190183572977162e+01 -1.7131695324061631e+01 -1.2768619801873227e+02 0 0 0
2086 60 2 0.0000000000000000e+00 -6.4088117475114004e+01 -1.0755229921578861e+01 -1.1964004529590733e+02 0 0 0
1538 44 2 0.0000000000000000e+00 -3.1128125204068962e+01 -7.6138818368398500e+00 -1.2763285938684704e+02 0 0 0
1537 44 1 0.0000000000000000e+00 -2.1458983610535928e+01 -8.0164112775102527e+00 -1.2773556218451164e+02 0 0 0
1536 44 2 0.0000000000000000e+00 -1.3956075653032540e+01 -7.7084093579382502e+00 -1.2152496144501848e+02 0 0 0
2080 60 2 0.0000000000000000e+00 -9.4427882453556393e+01 -1.1550397439144000e+00 -1.2510837444410367e+02 0 0 0
6315 181 4 0.0000000000000000e+00 -7.8461431784964816e+01 -4.1570531795959381e-01 -1.2728940688158247e+02 0 0 0
6316 181 4 0.0000000000000000e+00 -6.9634794821214214e+01 -6.3710146441372928e-01 -1.2242327991022972e+02 0 0 0
1539 44 2 0.0000000000000000e+00 -3.9839454793425354e+01 -3.8235749763791049e+00 -1.3004839240256103e+02 0 0 0
1540 44 2 0.0000000000000000e+00 -4.1850975090087289e+01 5.6293227981841358e+00 -1.3135123929972423e+02 0 0 0
281 9 2 0.0000000000000000e+00 -3.7540350439646005e+01 3.9371095346991485e+00 -1.1987227262971386e+02 0 0 0
6293 180 4 0.0000000000000000e+00 -1.2798774191334380e+02 1.4569542508326865e+01 -1.2218447127373135e+02 0 0 0
5902 169 4 0.0000000000000000e+00 -9.5005181130209706e+01 1.8603147020958179e+01 -1.3227577654996051e+02 0 0 0
5901 169 4 0.0000000000000000e+00 -9.1683314431225995e+01 1.5820600531549331e+01 -1.2368284964706847e+02 0 0 0
6322 181 4 0.0000000000000000e+00 -2.7748845921244467e+01 1.9690764559902100e+01 -1.1956148901290166e+02 0 0 0
1529 44 2 0.0000000000000000e+00 -1.3081838543384405e+01 1.1234097485861787e+01 -1.1942955902142111e+02 0 0 0
1796 52 1 0.0000000000000000e+00 -1.4934718884414571e+02 3.2618168063014529e+01 -1.2941236920791258e+02 0 0 0
1798 52 2 0.0000000000000000e+00 -1.3285510651861378e+02 2.1601181240508193e+01 -1.2890945200230922e+02 0 0 0
1797 52 2 0.0000000000000000e+00 -1.4110761614492768e+02 2.6819825003066338e+01 -1.2701599153985453e+02 0 0 0
6292 180 4 0.0000000000000000e+00 -1.2394023265075494e+02 2.3905313194114239e+01 -1.2395553072828869e+02 0 0 0
5903 169 4 0.0000000000000000e+00 -1.0455098528491253e+02 2.1229694975382341e+01 -1.3158275528060955e+02 0 0 0
2807 81 2 0.0000000000000000e+00 -7.7250088078964039e+00 -1.2372389253152811e+02 -1.0661848813815189e+02 0 0 0
4200 120 4 0.0000000000000000e+00 -1.1006246047381731e+02 -9.3310918249045642e+01 -1.1341884693295900e+02 0 0 0
6510 186 4 0.0000000000000000e+00 -9.0027064958020091e+01 -9.5996092896743292e+01 -1.1885222138736128e+02 0 0 0
6509 186 4 0.0000000000000000e+00 -8.0473627116065870e+01 -9.4800367961022275e+01 -1.1690874461515460e+02 0 0 0
1367 40 2 0.0000000000000000e+00 -1.1437974270847933e+02 -7.8241125207551576e+01 -1.0998899779691119e+02 0 0 0
4199 120 4 0.0000000000000000e+00 -1.0460552441472477e+02 -8.7902253411201968e+01 -1.0718117589201205e+02 0 0 0
4198 120 4 0.0000000000000000e+00 -9.6702274332268985e+01 -8.1510568430378925e+01 -1.0834155287160112e+02 0 0 0
6505 186 4 0.0000000000000000e+00 -6.3256624392271071e+01 -7.8172777246099074e+01 -1.1377290397882032e+02 0 0 0
3745 107 4 0.0000000000000000e+00 -1.3997416859911371e+02 -7.0065491928333088e+01 -1.0636327287795207e+02 0 0 0
3744 107 4 0.0000000000000000e+00 -1.3079107562305052e+02 -6.4844176684621189e+01 -1.0739773593592795e+02 0 0 0
1366 40 2 0.0000000000000000e+00 -1.2159978308075847e+02 -7.2178151328026985e+01 -1.1079583614177764e+02 0 0 0
1369 40 1 0.0000000000000000e+00 -1.0008918401597148e+02 -7.0832681999034122e+01 -1.0979836594911669e+02 0 0 0
1370 40 2 0.0000000000000000e+00 -9.2709589072982183e+01 -7.3274884109829529e+01 -1.1619769887364779e+02 0 0 0
4197 120 3 0.0000000000000000e+00 -8.9924763265445733e+01 -7.4522194393017045e+01 -1.0672604288979858e+02 0 0 0
2221 64 2 0.0000000000000000e+00 -7.7087221761269745e+01 -7.3628092214037196e+01 -1.1705728813408240e+02 0 0 0
6504 186 4 0.0000000000000000e+00 -6.2958523818558263e+01 -6.8581331703286054e+01 -1.1592296430994092e+02 0 0 0
1380 40 2 0.0000000000000000e+00 -4.3539936247590752e+01 -6.2247014905448822e+01 -1.1737927223817755e+02 0 0 0
2219 64 2 0.0000000000000000e+00 -7.4058577727662922e+01 -5.6062428896243610e+01 -1.1711571800028766e+02 0 0 0
1381 40 2 0.0000000000000000e+00 -5.1607325781160462e+01 -5.8170378609531959e+01 -1.1431829092303472e+02 0 0 0
1382 40 2 0.0000000000000000e+00 -5.9388598698594627e+01 -5.3933961953722452e+01 -1.1035244869255943e+02 0 0 0
2534 73 2 0.0000000000000000e+00 -9.1259961306436963e+01 -3.5800319013330629e+01 -1.0875149868902692e+02 0 0 0
2533 73 2 0.0000000000000000e+00 -9.2944152120327161e+01 -4.5001943503279307e+01 -1.0663776145812159e+02 0 0 0
5548 159 3 0.0000000000000000e+00 -5.0185653954001495e+01 -3.9737158025668343e+01 -1.1157583959282736e+02 0 0 0
5547 159 4 0.0000000000000000e+00 -5.9576637635809803e+01 -3.6437597691949669e+01 -1.1496544877196780e+02 0 0 0
5549 159 4 0.0000000000000000e+00 -4.1500210948308741e+01 -4.0352679678225435e+01 -1.0644692119824202e+02 0 0 0
4840 139 4 0.0000000000000000e+00 -2.0105897349656882e+01 -4.3054115670100032e+01 -1.1289347869437267e+02 0 0 0
6494 186 4 0.0000000000000000e+00 -1.2137318452576528e+02 -2.3159712471715974e+01 -1.1796300507627066e+02 0 0 0