LAMMPS data file via write_data, version 5 Jun 2019, timestep = 400000000

7000 atoms
4 atom types
7287 bonds
3 bond types
6600 angles
2 angle types

-5.0000000000000000e+02 5.0000000000000000e+02 xlo xhi
-5.0000000000000000e+02 5.0000000000000000e+02 ylo yhi
-5.0000000000000000e+02 5.0000000000000000e+02 zlo zhi

Masses

1 1000
2 1000
3 1000
4 1000

Pair Coeffs # lj/cut

1 0.178 10
2 0.178 10
3 0.178 10
4 0.178 10

Angle Coeffs # cosine

1 2
2 2

Atoms # full

561 17 2 0.0000000000000000e+00 -1.1626936672540302e+02 1.9680300673801899e+01 -1.8838444198471220e+02 0 0 0
4442 127 3 0.0000000000000000e+00 -9.1896692278210665e+01 -1.7407261858146278e+01 -1.7021733051672933e+02 0 0 0
562 17 2 0.0000000000000000e+00 -1.1432054267225222e+02 2.5695408117689094e+01 -1.8081864604029983e+02 0 0 0
563 17 2 0.0000000000000000e+00 -1.1059879229165236e+02 2.9335753161189889e+01 -1.7143725026532925e+02 0 0 0
4443 127 4 0.0000000000000000e+00 -9.5942699198905274e+01 -2.4393692016389014e+01 -1.6394946032475912e+02 0 0 0
2229 64 2 0.0000000000000000e+00 -8.0341772428208813e+01 -3.0247769617710627e+01 -1.5969122731565616e+02 0 0 0
2230 64 1 0.0000000000000000e+00 -8.3387381953431060e+01 -2.3648540668659500e+01 -1.6674317377450197e+02 0 0 0
4445 127 4 0.0000000000000000e+00 -1.1288911971975537e+02 -2.1952384355491478e+01 -1.5726503216196454e+02 0 0 0
4444 127 4 0.0000000000000000e+00 -1.0285407924872284e+02 -2.2407557467563699e+01 -1.5692866605962587e+02 0 0 0
4441 127 4 0.0000000000000000e+00 -8.4322164455736655e+01 -1.3222285548474680e+01 -1.6561289332995455e+02 0 0 0
4440 127 4 0.0000000000000000e+00 -7.7531388888087193e+01 -7.5934898096747139e+00 -1.5983650306006317e+02 0 0 0
581 17 2 0.0000000000000000e+00 -1.0730930121568340e+02 1.3401707830084879e+01 -1.5515564384862861e+02 0 0 0
582 17 2 0.0000000000000000e+00 -9.9175053412595190e+01 1.4362230493164542e+01 -1.5973193751299604e+02 0 0 0
583 17 2 0.0000000000000000e+00 -9.4061400770085228e+01 2.2937748288697332e+01 -1.5845866113591362e+02 0 0 0
5913 169 4 0.0000000000000000e+00 -1.1333408538363977e+02 -5.1982236057034498e+01 -1.4396309749702928e+02 0 0 0
2067 60 2 0.0000000000000000e+00 -1.2410187898138571e+02 -4.0311301858113339e+01 -1.4649945843863694e+02 0 0 0
5912 169 3 0.0000000000000000e+00 -1.0814073875969413e+02 -4.3003900844755591e+01 -1.4320691600618494e+02 0 0 0
2066 60 2 0.0000000000000000e+00 -1.3232847923954424e+02 -3.6119443276443114e+01 -1.5070755318950518e+02 0 0 0
5910 169 4 0.0000000000000000e+00 -1.1205078443934099e+02 -2.4854064500876063e+01 -1.4850757665878987e+02 0 0 0
5911 169 4 0.0000000000000000e+00 -1.0761123321604775e+02 -3.2635333685821642e+01 -1.4390887815151220e+02 0 0 0
2228 64 2 0.0000000000000000e+00 -7.9351006735962386e+01 -3.2503126479490540e+01 -1.4988666804522541e+02 0 0 0
5909 169 4 0.0000000000000000e+00 -1.1644493225152269e+02 -1.5936548365391662e+01 -1.4751584301216263e+02 0 0 0
5908 169 4 0.0000000000000000e+00 -1.2106274938753737e+02 -7.7162293645054874e+00 -1.4718024380273496e+02 0 0 0
5907 169 4 0.0000000000000000e+00 -1.1675896397907715e+02 1.4052347956728135e+00 -1.4735324110749772e+02 0 0 0
579 17 2 0.0000000000000000e+00 -1.2506070735948828e+02 1.7422758906518297e+01 -1.4751142133073424e+02 0 0 0
580 17 2 0.0000000000000000e+00 -1.1685237245200805e+02 1.5080897343011168e+01 -1.5221862772448316e+02 0 0 0
6307 181 4 0.0000000000000000e+00 -1.0599247181286698e+02 9.1484827366741612e+00 -1.4196167093548618e+02 0 0 0
6305 181 4 0.0000000000000000e+00 -1.0473000939862507e+02 2.5069884964967599e+01 -1.4948672101664451e+02 0 0 0
6306 181 4 0.0000000000000000e+00 -1.0166238715031398e+02 1.7879726167193891e+01 -1.4423868344018595e+02 0 0 0
4436 127 4 0.0000000000000000e+00 -7.9341881830310925e+01 2.4049075269632485e+01 -1.5385496001774217e+02 0 0 0
6505 186 4 0.0000000000000000e+00 -9.0664070037595096e+01 -8.5880379349522471e+01 -1.2935963471549704e+02 0 0 0
6506 186 4 0.0000000000000000e+00 -8.4380930295637313e+01 -8.0143748274533294e+01 -1.3427326211420018e+02 0 0 0
5915 169 4 0.0000000000000000e+00 -1.1944246919969878e+02 -6.4701619562530283e+01 -1.3244305129257310e+02 0 0 0
2223 64 1 0.0000000000000000e+00 -7.6293410573757413e+01 -6.6601582526417161e+01 -1.2933224923479335e+02 0 0 0
5914 169 4 0.0000000000000000e+00 -1.1552651018520508e+02 -6.0949659466686384e+01 -1.4069197730666167e+02 0 0 0
2070 60 2 0.0000000000000000e+00 -1.1455098627161074e+02 -5.3710815575770610e+01 -1.2699589864842903e+02 0 0 0
2068 60 2 0.0000000000000000e+00 -1.1942190986041452e+02 -4.3683413136523171e+01 -1.3852640840913119e+02 0 0 0
2069 60 1 0.0000000000000000e+00 -1.1152469616540962e+02 -4.9068143637939947e+01 -1.3484596463998815e+02 0 0 0
2226 64 2 0.0000000000000000e+00 -7.8820238975589760e+01 -3.9484631761407208e+01 -1.3133999651005200e+02 0 0 0
2081 60 2 0.0000000000000000e+00 -1.0424543465433079e+02 -2.3302487672708786e+01 -1.3339417851816410e+02 0 0 0
2082 60 2 0.0000000000000000e+00 -9.6901593035062689e+01 -2.3745122465866313e+01 -1.2745472895196504e+02 0 0 0
2227 64 2 0.0000000000000000e+00 -8.0791427349109867e+01 -3.4727379556412842e+01 -1.4010884013003954e+02 0 0 0
2079 60 2 0.0000000000000000e+00 -1.1396442744865007e+02 -1.0738181342047170e+01 -1.2970222851800895e+02 0 0 0
2080 60 2 0.0000000000000000e+00 -1.1323900541074558e+02 -1.9133178608018174e+01 -1.3443464353735851e+02 0 0 0
6310 181 4 0.0000000000000000e+00 -1.0415876006930708e+02 -1.5075329148670884e+01 -1.2848437478532875e+02 0 0 0
6309 181 4 0.0000000000000000e+00 -1.0669347453210395e+02 -9.7466464204122900e+00 -1.3690616337074368e+02 0 0 0
5537 159 4 0.0000000000000000e+00 -7.8871421736861620e+01 -1.0564465553497909e+01 -1.3058870675821908e+02 0 0 0
5536 159 4 0.0000000000000000e+00 -8.8187784843508098e+01 -1.3342199608234830e+01 -1.2850782900303471e+02 0 0 0
6308 181 4 0.0000000000000000e+00 -1.0844152991297409e+02 -2.8791779923432831e-01 -1.3897608150834878e+02 0 0 0
5535 159 4 0.0000000000000000e+00 -9.5874141306009960e+01 -7.7054984294487570e+00 -1.3162480572378473e+02 0 0 0
578 17 1 0.0000000000000000e+00 -1.2319445217917152e+02 1.5619019988495957e+01 -1.3776411597370515e+02 0 0 0
5905 169 3 0.0000000000000000e+00 -1.1788194710554946e+02 9.4461842407794645e+00 -1.2944202305124699e+02 0 0 0
5906 169 4 0.0000000000000000e+00 -1.1536151719745055e+02 6.6904840754701960e+00 -1.3887707146874033e+02 0 0 0
577 17 2 0.0000000000000000e+00 -1.1816017185975808e+02 2.0919259275539439e+01 -1.3158009907876527e+02 0 0 0
4433 127 4 0.0000000000000000e+00 -9.3872865392295139e+01 2.8903480413166765e+01 -1.3864014202231309e+02 0 0 0
6504 186 4 0.0000000000000000e+00 -9.2228658131075846e+01 -8.7904553446700191e+01 -1.1952187453635032e+02 0 0 0
2220 64 2 0.0000000000000000e+00 -7.9908700585859535e+01 -9.0227608297240394e+01 -1.1460737007049163e+02 0 0 0
2221 64 2 0.0000000000000000e+00 -8.2009757793093968e+01 -8.3957803540784582e+01 -1.2254301686725312e+02 0 0 0
2222 64 2 0.0000000000000000e+00 -8.0935788209640606e+01 -7.3999333159049002e+01 -1.2524099054700380e+02 0 0 0
2521 73 2 0.0000000000000000e+00 -1.4739959340206079e+02 -5.0679691021702801e+01 -1.2677976277507695e+02 0 0 0
2522 73 2 0.0000000000000000e+00 -1.4767454294876967e+02 -5.4690968492825171e+01 -1.1719825420562134e+02 0 0 0
5426 156 4 0.0000000000000000e+00 -8.2605381275892157e+01 -6.2706789656396012e+01 -1.1888255886230958e+02 0 0 0
2071 60 2 0.0000000000000000e+00 -1.1858873230951492e+02 -4.5384474327138726e+01 -1.2253367683264452e+02 0 0 0
2072 60 2 0.0000000000000000e+00 -1.2332715488589106e+02 -3.8945835036172717e+01 -1.1722265714840300e+02 0 0 0
4748 136 4 0.0000000000000000e+00 -8.2730170300010286e+01 -3.7652290040320914e+01 -1.2154505560673164e+02 0 0 0
4750 136 3 0.0000000000000000e+00 -9.3589107769770251e+01 -2.4731540018202455e+01 -1.1347771326415644e+02 0 0 0
4749 136 4 0.0000000000000000e+00 -8.7229591887944366e+01 -2.8856344119867355e+01 -1.1978335880946358e+02 0 0 0
6311 181 3 0.0000000000000000e+00 -9.9445242110407605e+01 -1.7411632958161750e+01 -1.1976748977029963e+02 0 0 0
6312 181 4 0.0000000000000000e+00 -9.2887087302707400e+01 -1.4074111663301514e+01 -1.1424154323317515e+02 0 0 0
2083 60 1 0.0000000000000000e+00 -8.8829013592096942e+01 -1.9970986809908823e+01 -1.2214612672216420e+02 0 0 0
2084 60 2 0.0000000000000000e+00 -8.4000199342356566e+01 -1.9061936892009950e+01 -1.1316601110840094e+02 0 0 0
2078 60 2 0.0000000000000000e+00 -1.1509552658318351e+02 -5.3676755898837669e+00 -1.2174383563309637e+02 0 0 0
1802 52 2 0.0000000000000000e+00 -1.0415547659927965e+02 -4.2145932401496324e+00 -1.1837022206576424e+02 0 0 0
5534 159 3 0.0000000000000000e+00 -9.1299374923275352e+01 -9.4924725676330846e-01 -1.2605541542279963e+02 0 0 0
1803 52 1 0.0000000000000000e+00 -9.4272774636336123e+01 -4.9597610694834078e+00 -1.1647727450316722e+02 0 0 0
6313 181 4 0.0000000000000000e+00 -8.5903122774986315e+01 -8.6054300292579864e+00 -1.1920158631923761e+02 0 0 0
1804 52 2 0.0000000000000000e+00 -8.8152433281351691e+01 2.0270480289588684e+00 -1.1384910591922095e+02 0 0 0
5904 169 4 0.0000000000000000e+00 -1.1540816495985611e+02 1.4677552091990751e+01 -1.2157227662670755e+02 0 0 0
5903 169 4 0.0000000000000000e+00 -1.0916877624539589e+02 1.5331008417657559e+01 -1.1375567700116684e+02 0 0 0
5533 159 4 0.0000000000000000e+00 -9.4829849136667036e+01 7.3354163891503248e+00 -1.2175143667327468e+02 0 0 0
5532 159 4 0.0000000000000000e+00 -8.7164246347690550e+01 1.4347054620132292e+01 -1.2192339234552333e+02 0 0 0
576 17 2 0.0000000000000000e+00 -1.1312921123378959e+02 2.6414429714476409e+01 -1.2570648073398854e+02 0 0 0
6336 182 4 0.0000000000000000e+00 -9.7292869103501914e+01 1.8027557553616795e+01 -1.1523154477068864e+02 0 0 0
5531 159 4 0.0000000000000000e+00 -7.7619799712220981e+01 1.8412967177987685e+01 -1.2207343758873201e+02 0 0 0
6503 186 4 0.0000000000000000e+00 -9.1028732000475060e+01 -9.4429607578600383e+01 -1.1257628393629174e+02 0 0 0
6502 186 4 0.0000000000000000e+00 -9.5577960362681338e+01 -1.0169425033822871e+02 -1.0812384082363411e+02 0 0 0
6501 186 4 0.0000000000000000e+00 -9.6879353637244719e+01 -9.7287955072083733e+01 -9.9706317786422986e+01 0 0 0
2219 64 2 0.0000000000000000e+00 -8.3508957297796485e+01 -9.7520185767574915e+01 -1.0761788824876065e+02 0 0 0
1372 40 2 0.0000000000000000e+00 -1.0267872437329360e+02 -8.6495175203130614e+01 -1.0080649272735096e+02 0 0 0
1373 40 2 0.0000000000000000e+00 -9.3634052538455180e+01 -8.6014745792582360e+01 -1.0501942984420430e+02 0 0 0
1374 40 2 0.0000000000000000e+00 -8.6778517834341983e+01 -7.9154124001338403e+01 -1.0680715412742745e+02 0 0 0
6511 187 4 0.0000000000000000e+00 -9.6519628024427661e+01 -7.0072601277849685e+01 -1.0506046703586036e+02 0 0 0
1375 40 2 0.0000000000000000e+00 -7.9754961407894498e+01 -7.2172594295878341e+01 -1.0964195632118715e+02 0 0 0
2523 73 2 0.0000000000000000e+00 -1.4646057257048091e+02 -5.8238623871334660e+01 -1.0817206922098234e+02 0 0 0
2524 73 1 0.0000000000000000e+00 -1.5205381781040467e+02 -5.6957830629136247e+01 -9.9324870598313524e+01 0 0 0
2093 60 2 0.0000000000000000e+00 -8.3290506239823571e+01 -5.1452957581161051e+01 -1.0747930254774853e+02 0 0 0
2213 64 2 0.0000000000000000e+00 -7.5761699858816215e+01 -6.1528270749046243e+01 -1.0155088759083391e+02 0 0 0
2094 60 2 0.0000000000000000e+00 -7.9753682325492250e+01 -4.6414622387405664e+01 -9.9632223414680155e+01 0 0 0
2073 60 2 0.0000000000000000e+00 -1.2339699075716024e+02 -3.0332088565192347e+01 -1.1193481551723031e+02 0 0 0
2074 60 2 0.0000000000000000e+00 -1.1392572589022846e+02 -2.9267168289432661e+01 -1.0819428509000652e+02 0 0 0
2075 60 2 0.0000000000000000e+00 -1.0562108713779060e+02 -2.4605197704264764e+01 -1.1180420343993796e+02 0 0 0
4751 136 4 0.0000000000000000e+00 -9.6547973421326162e+01 -2.4842012077995385e+01 -1.0326325235828665e+02 0 0 0
2076 60 1 0.0000000000000000e+00 -1.0721416619814973e+02 -1.4966326185113145e+01 -1.1252476234461419e+02 0 0 0
2085 60 2 0.0000000000000000e+00 -7.6194934102395877e+01 -1.8836520942752060e+01 -1.0728403743238383e+02 0 0 0
3310 95 2 0.0000000000000000e+00 -1.2870788368371919e+02 -1.9962798633025201e+00 -9.9403137014583180e+01 0 0 0
2077 60 2 0.0000000000000000e+00 -1.1601039503027994e+02 -9.4185067694812776e+00 -1.1237167255134379e+02 0 0 0
1801 52 2 0.0000000000000000e+00 -1.0797041988639451e+02 -5.9218807357766926e-02 -1.1022751318251331e+02 0 0 0
1800 52 2 0.0000000000000000e+00 -1.1142181518010624e+02 1.7629331284785867e+00 -1.0121769004868439e+02 0 0 0
6314 181 4 0.0000000000000000e+00 -8.0482626847498793e+01 -8.2235285856272498e+00 -1.1050698046095390e+02 0 0 0
6315 181 4 0.0000000000000000e+00 -7.6399255869545783e+01 -7.1539044401173149e+00 -1.0110475168630165e+02 0 0 0
5902 169 4 0.0000000000000000e+00 -1.0186435742259998e+02 1.4233408832460732e+01 -1.0761690889266727e+02 0 0 0
5901 169 4 0.0000000000000000e+00 -9.3450576517402823e+01 1.1451567074489317e+01 -1.0433849975046206e+02 0 0 0
1805 52 2 0.0000000000000000e+00 -8.3960934544228465e+01 1.1370610104566389e+01 -1.1303172913812816e+02 0 0 0
1798 52 2 0.0000000000000000e+00 -1.1228445714219308e+02 1.9781354910724172e+01 -9.9400747310425288e+01 0 0 0
6337 182 4 0.0000000000000000e+00 -1.0023694122303300e+02 2.6512954206281794e+01 -1.1026162687803354e+02 0 0 0
1806 52 2 0.0000000000000000e+00 -8.3564639183021725e+01 1.7761425259152492e+01 -1.0572274508113196e+02 0 0 0
1807 52 2 0.0000000000000000e+00 -8.2738262342354176e+01 2.7632406018356178e+01 -1.0455860911079152e+02 0 0 0
2218 64 2 0.0000000000000000e+00 -8.3174283900359754e+01 -1.0389621933473624e+02 -9.9292620699093376e+01 0 0 0
2217 64 2 0.0000000000000000e+00 -8.4080356293520609e+01 -9.6232583924037286e+01 -9.3755858130695728e+01 0 0 0
1371 40 2 0.0000000000000000e+00 -1.0918783783732536e+02 -8.8682059224314813e+01 -9.3483063869739382e+01 0 0 0
6497 186 4 0.0000000000000000e+00 -1.1589710839351731e+02 -7.8995093197230219e+01 -9.3141789917617700e+01 0 0 0
6498 186 4 0.0000000000000000e+00 -1.0537174192612416e+02 -7.9728422265127051e+01 -9.3699950123425964e+01 0 0 0
6500 186 3 0.0000000000000000e+00 -9.5379985007506406e+01 -8.9798200859947613e+01 -9.2459760325987759e+01 0 0 0
6499 186 4 0.0000000000000000e+00 -9.5894175910204183e+01 -7.9828416988130371e+01 -9.0545974507242121e+01 0 0 0
2216 64 1 0.0000000000000000e+00 -8.4591472624077852e+01 -8.5837459495466675e+01 -9.2366429293339650e+01 0 0 0
6495 186 4 0.0000000000000000e+00 -1.3610134502268409e+02 -7.7104765450185511e+01 -9.3070221816009891e+01 0 0 0
6494 186 4 0.0000000000000000e+00 -1.4319868199987147e+02 -7.0016591491543977e+01 -9.3099004826621965e+01 0 0 0
6496 186 4 0.0000000000000000e+00 -1.2607156082084872e+02 -7.7563749780961388e+01 -9.5005184695234874e+01 0 0 0
6512 187 4 0.0000000000000000e+00 -9.6838162996169757e+01 -6.4679746447191903e+01 -9.6688750795324992e+01 0 0 0
2215 64 2 0.0000000000000000e+00 -8.4800671431359092e+01 -7.5992611182983978e+01 -9.3090085046261493e+01 0 0 0
2214 64 2 0.0000000000000000e+00 -7.8480598941731571e+01 -6.9200772680044849e+01 -9.5480206797923714e+01 0 0 0
2525 73 2 0.0000000000000000e+00 -1.5054158727926222e+02 -5.1698561106735092e+01 -9.0806190579385998e+01 0 0 0
6493 186 3 0.0000000000000000e+00 -1.4520767582442687e+02 -6.0214160584836740e+01 -9.1220723009664354e+01 0 0 0
6492 186 4 0.0000000000000000e+00 -1.4174997845525189e+02 -5.0976129298531880e+01 -9.2083915746167776e+01 0 0 0
6513 187 4 0.0000000000000000e+00 -9.3397225815560574e+01 -6.1006239353124691e+01 -8.8946351651989033e+01 0 0 0
6491 186 4 0.0000000000000000e+00 -1.4537285357637657e+02 -4.0997191455936118e+01 -9.0453661271316861e+01 0 0 0
2097 60 1 0.0000000000000000e+00 -1.0041179090507131e+02 -4.8371205311841607e+01 -9.0249507442501070e+01 0 0 0
2096 60 2 0.0000000000000000e+00 -9.4821321168809661e+01 -4.0870007395331264e+01 -9.4748705503162071e+01 0 0 0
2095 60 2 0.0000000000000000e+00 -8.4962434263153000e+01 -4.0168720366648536e+01 -9.4124897725289699e+01 0 0 0
5547 159 4 0.0000000000000000e+00 -8.0419583344950141e+01 -4.8726730091529532e+01 -8.6800915449258611e+01 0 0 0
4752 136 4 0.0000000000000000e+00 -9.4207614537604314e+01 -2.7226236935083133e+01 -9.4187515913930739e+01 0 0 0
5881 169 4 0.0000000000000000e+00 -1.4164701880780066e+02 -7.9494250446193151e+00 -9.1930396782894732e+01 0 0 0
3311 95 2 0.0000000000000000e+00 -1.2133152121211957e+02 -7.8313865655576818e+00 -9.6193298004127882e+01 0 0 0
3312 95 2 0.0000000000000000e+00 -1.1573790471999231e+02 -1.9120900689603688e+00 -9.0665863973464184e+01 0 0 0
5899 169 4 0.0000000000000000e+00 -9.7639464204569862e+01 -2.1267665095418797e+00 -9.0759084202059441e+01 0 0 0
2914 84 2 0.0000000000000000e+00 -8.2742616266722493e+01 -5.9773845640130467e+00 -9.1058733185092947e+01 0 0 0
2915 84 2 0.0000000000000000e+00 -8.0964171437744156e+01 3.4183250663277152e+00 -9.0095318108890169e+01 0 0 0
3308 95 1 0.0000000000000000e+00 -1.3028251925443303e+02 9.7217430041017874e+00 -8.5973334022874567e+01 0 0 0
3309 95 2 0.0000000000000000e+00 -1.2993424257301041e+02 7.6323390985434161e+00 -9.5898394402845327e+01 0 0 0
1799 52 2 0.0000000000000000e+00 -1.0752279284976242e+02 1.0504028016039562e+01 -9.8807586465024812e+01 0 0 0
3313 95 2 0.0000000000000000e+00 -1.0905323436011442e+02 4.4042849634727750e+00 -8.6859905265068647e+01 0 0 0
3314 95 2 0.0000000000000000e+00 -1.0641228023047454e+02 1.3632998403386869e+01 -8.5768845316759382e+01 0 0 0
5900 169 4 0.0000000000000000e+00 -9.4079607489550781e+01 4.3186094461234816e+00 -9.7199559685346799e+01 0 0 0
3305 95 2 0.0000000000000000e+00 -1.3093412422897927e+02 3.0908751722974255e+01 -9.3348520433360903e+01 0 0 0
1797 52 2 0.0000000000000000e+00 -1.1919269750916962e+02 2.6928559046390852e+01 -9.9054178376320991e+01 0 0 0
3306 95 2 0.0000000000000000e+00 -1.2292592119042074e+02 2.4969347945297706e+01 -8.9947680578071555e+01 0 0 0
3315 95 1 0.0000000000000000e+00 -1.0844766635161027e+02 2.3629197684128393e+01 -8.5520418329047416e+01 0 0 0
2049 59 2 0.0000000000000000e+00 -8.0614041940033815e+01 3.1101893058600648e+01 -8.6259258061545012e+01 0 0 0
4198 120 4 0.0000000000000000e+00 -1.0500464947444326e+02 -8.9744528046846241e+01 -7.4863230064565727e+01 0 0 0
4199 120 4 0.0000000000000000e+00 -1.1096064699489031e+02 -8.2711790244872731e+01 -7.2662137881395992e+01 0 0 0
1370 40 2 0.0000000000000000e+00 -1.0398241075540395e+02 -8.5490959667500036e+01 -8.5199512718951212e+01 0 0 0
1369 40 1 0.0000000000000000e+00 -9.8105783216214704e+01 -8.1971205748948918e+01 -7.8032623540994635e+01 0 0 0
2100 60 2 0.0000000000000000e+00 -1.1016170500297987e+02 -6.7378074523096942e+01 -8.1254758510367992e+01 0 0 0
4200 120 4 0.0000000000000000e+00 -1.1310736339447816e+02 -7.3062932217921187e+01 -7.2032740102539108e+01 0 0 0
1385 40 2 0.0000000000000000e+00 -9.5776266572470647e+01 -6.5377388852625955e+01 -7.8607741137289281e+01 0 0 0
1383 40 1 0.0000000000000000e+00 -7.6959433883490007e+01 -6.5961314058593828e+01 -7.6136591343034780e+01 0 0 0
2526 73 2 0.0000000000000000e+00 -1.4750347337750335e+02 -5.5686935541038565e+01 -8.1445880490338240e+01 0 0 0
2527 73 2 0.0000000000000000e+00 -1.4403383585410569e+02 -5.6575478235429586e+01 -7.2556343099970988e+01 0 0 0
2099 60 2 0.0000000000000000e+00 -1.1010147757844246e+02 -5.7372331785687848e+01 -7.7980992237355508e+01 0 0 0
6514 187 3 0.0000000000000000e+00 -9.2117292219294569e+01 -5.1835918228177398e+01 -8.3702069909819528e+01 0 0 0
5548 159 3 0.0000000000000000e+00 -7.8265570593945270e+01 -5.8124344764258062e+01 -8.3881987743635392e+01 0 0 0
1384 40 2 0.0000000000000000e+00 -8.6247560951962413e+01 -6.3386488842291492e+01 -7.7541617915589683e+01 0 0 0
2098 60 2 0.0000000000000000e+00 -1.0389653920174132e+02 -4.9349543800234187e+01 -8.0895712390538122e+01 0 0 0
1389 40 2 0.0000000000000000e+00 -9.9305349827635965e+01 -4.0454865820942132e+01 -8.1391249393122820e+01 0 0 0
1388 40 2 0.0000000000000000e+00 -9.3811575071540119e+01 -4.5944316228791550e+01 -7.4727552510714915e+01 0 0 0
6515 187 4 0.0000000000000000e+00 -8.9433611305044593e+01 -4.1935203483851552e+01 -8.4486945005192410e+01 0 0 0
6490 186 4 0.0000000000000000e+00 -1.4754094275283632e+02 -3.5114409984317227e+01 -8.2810846473330642e+01 0 0 0
6489 186 4 0.0000000000000000e+00 -1.5122529340810109e+02 -2.8662882654763397e+01 -7.6268803900461094e+01 0 0 0
6294 180 4 0.0000000000000000e+00 -1.3477190881532800e+02 -2.5050061950844292e+01 -7.5140374729737246e+01 0 0 0
3735 107 3 0.0000000000000000e+00 -1.0702831703257858e+02 -2.9351881610151931e+01 -7.2715979049735807e+01 0 0 0
4753 136 4 0.0000000000000000e+00 -9.3780904850349060e+01 -2.4211519010217103e+01 -8.5145983551215892e+01 0 0 0
1390 40 1 0.0000000000000000e+00 -9.6672660785775193e+01 -3.3067306097095852e+01 -7.5231853848043471e+01 0 0 0
4754 136 4 0.0000000000000000e+00 -9.0287437092705588e+01 -2.5452424300302706e+01 -7.5879291554633980e+01 0 0 0
6516 187 4 0.0000000000000000e+00 -8.2439095644127903e+01 -3.5135528847111836e+01 -8.4786752561231467e+01 0 0 0
6517 187 4 0.0000000000000000e+00 -8.2165913348899650e+01 -2.9086370873810736e+01 -7.6626077014645560e+01 0 0 0
6488 186 4 0.0000000000000000e+00 -1.5602218871349802e+02 -2.0813472576586317e+01 -7.2134684334467067e+01 0 0 0
1717 50 2 0.0000000000000000e+00 -1.5202946192828151e+02 -1.1376397909791464e+01 -7.4868840317751790e+01 0 0 0
6293 180 4 0.0000000000000000e+00 -1.3706084459058437e+02 -1.5171942112926438e+01 -7.7049219900658215e+01 0 0 0
3734 107 4 0.0000000000000000e+00 -1.1064265830046556e+02 -2.2230266996318647e+01 -7.9241271151426687e+01 0 0 0
3733 107 4 0.0000000000000000e+00 -1.1446191900167511e+02 -1.2707995637189548e+01 -7.7278058485580956e+01 0 0 0
2913 84 2 0.0000000000000000e+00 -8.4584283167899173e+01 -1.1162182301695340e+01 -8.2553347852708413e+01 0 0 0
2912 84 2 0.0000000000000000e+00 -7.9161770724137767e+01 -1.4558678081755254e+01 -7.4816681312179000e+01 0 0 0
1925 55 2 0.0000000000000000e+00 -1.5896867310281141e+02 -4.5677548714297256e+00 -7.7184114974497305e+01 0 0 0
1716 50 2 0.0000000000000000e+00 -1.4707387640267893e+02 -9.4598600552526637e+00 -8.3659091922271102e+01 0 0 0
1924 55 2 0.0000000000000000e+00 -1.4987788076085761e+02 -8.8909837887020826e-01 -7.7402155491707688e+01 0 0 0
5882 169 4 0.0000000000000000e+00 -1.3493932638550291e+02 -6.8001940008834021e+00 -8.4506052656572592e+01 0 0 0
6291 180 4 0.0000000000000000e+00 -1.3956917524659283e+02 -3.3864284162316731e+00 -7.2794993380995393e+01 0 0 0
5883 169 4 0.0000000000000000e+00 -1.3038322307542018e+02 -4.9145363082116358e+00 -7.5274543496652512e+01 0 0 0
6290 180 3 0.0000000000000000e+00 -1.3693115493193545e+02 3.5305607596891648e+00 -7.9551950483699841e+01 0 0 0
3732 107 4 0.0000000000000000e+00 -1.1085632226936362e+02 -3.9113283734678705e+00 -7.2924868497565967e+01 0 0 0
5898 169 3 0.0000000000000000e+00 -9.4401861418364703e+01 -5.5578569757165059e+00 -8.1744075644475018e+01 0 0 0
5897 169 4 0.0000000000000000e+00 -9.3902080551712032e+01 -9.2776829826611138e+00 -7.2632667228029121e+01 0 0 0
3711 107 4 0.0000000000000000e+00 -1.6140197677833177e+02 8.7262287947246939e+00 -7.2849906640892868e+01 0 0 0
6289 180 4 0.0000000000000000e+00 -1.3790464362453145e+02 1.3790163288812078e+01 -8.0982886003422479e+01 0 0 0
3730 107 4 0.0000000000000000e+00 -1.2260345063384121e+02 1.2159604989081846e+01 -7.4938283322424297e+01 0 0 0
3731 107 4 0.0000000000000000e+00 -1.1471268303530159e+02 5.3170124158725152e+00 -7.6166429758555950e+01 0 0 0
2918 84 2 0.0000000000000000e+00 -1.0386448191086954e+02 9.4690279699796278e+00 -7.4817184446871906e+01 0 0 0
2916 84 1 0.0000000000000000e+00 -8.9205800540303983e+01 4.1845935717545979e+00 -8.4310714714550599e+01 0 0 0
2917 84 2 0.0000000000000000e+00 -9.8372580055293682e+01 4.8026123639911651e+00 -8.0996650962631179e+01 0 0 0
6287 180 4 0.0000000000000000e+00 -1.4618756618997031e+02 2.9758940190719194e+01 -7.5848390480620992e+01 0 0 0
6288 180 4 0.0000000000000000e+00 -1.4114100279787328e+02 2.2655518335377394e+01 -8.1227159023216046e+01 0 0 0
3307 95 2 0.0000000000000000e+00 -1.2682012473981057e+02 1.8518914812434776e+01 -8.3649194249957702e+01 0 0 0
3729 107 4 0.0000000000000000e+00 -1.1919306146510252e+02 2.2035355824588034e+01 -7.6517452429361754e+01 0 0 0
3728 107 3 0.0000000000000000e+00 -1.1509723228889639e+02 3.0721848840221771e+01 -7.9840554670933514e+01 0 0 0
2047 59 2 0.0000000000000000e+00 -9.8882804645121482e+01 2.7036959578077763e+01 -7.9088763548674279e+01 0 0 0
2048 59 1 0.0000000000000000e+00 -8.9481525438313213e+01 2.7592021348150670e+01 -8.3143129771269614e+01 0 0 0
4195 120 4 0.0000000000000000e+00 -8.0707026682921352e+01 -9.3913710697396226e+01 -6.1215245350525883e+01 0 0 0
4197 120 3 0.0000000000000000e+00 -9.5766784586917126e+01 -9.0984958454510505e+01 -7.1557530430388709e+01 0 0 0
4196 120 4 0.0000000000000000e+00 -8.6406061133418646e+01 -9.0447275572092849e+01 -6.8813690600878189e+01 0 0 0
1366 40 2 0.0000000000000000e+00 -7.7110090137278632e+01 -8.1540599929745539e+01 -6.1158293255790014e+01 0 0 0
6255 179 3 0.0000000000000000e+00 -1.2368877103922864e+02 -6.4416906238505092e+01 -6.0701923546310432e+01 0 0 0
6254 179 4 0.0000000000000000e+00 -1.2874479662090434e+02 -7.3028157001993108e+01 -5.9815477812697978e+01 0 0 0
2543 73 2 0.0000000000000000e+00 -1.1523764246901808e+02 -7.3530119594198581e+01 -5.8477240267145540e+01 0 0 0
1368 40 2 0.0000000000000000e+00 -9.1980277768679287e+01 -7.7511531296807121e+01 -7.1266770066269601e+01 0 0 0
1367 40 2 0.0000000000000000e+00 -8.2442686737829746e+01 -7.7201075252931474e+01 -6.7992981894548635e+01 0 0 0
2528 73 2 0.0000000000000000e+00 -1.3968448503977177e+02 -5.9940269590809677e+01 -6.4310293612533187e+01 0 0 0
2546 73 2 0.0000000000000000e+00 -1.2430969378825544e+02 -5.0803058996643742e+01 -6.1142738287857433e+01 0 0 0
2545 73 1 0.0000000000000000e+00 -1.1607350942311498e+02 -5.6467914575012998e+01 -5.9162782681315832e+01 0 0 0
1386 40 2 0.0000000000000000e+00 -9.1037716936549003e+01 -5.9177517592452794e+01 -7.1287169390303333e+01 0 0 0
6296 180 4 0.0000000000000000e+00 -1.4278823137827601e+02 -3.8332054949581611e+01 -6.3640610724077717e+01 0 0 0
2547 73 2 0.0000000000000000e+00 -1.2850671992808932e+02 -4.1463795695545635e+01 -6.2261982501980903e+01 0 0 0
3736 107 4 0.0000000000000000e+00 -1.0421623833371508e+02 -3.8206843384465138e+01 -6.8967108569145807e+01 0 0 0
3737 107 4 0.0000000000000000e+00 -1.0670568426710513e+02 -4.4939415734583207e+01 -6.2886244381791435e+01 0 0 0
1387 40 2 0.0000000000000000e+00 -9.0118428960814015e+01 -5.0168823704704494e+01 -6.6430069960732510e+01 0 0 0
1393 40 2 0.0000000000000000e+00 -8.3371006847059022e+01 -3.8097008056911434e+01 -5.8188687715909190e+01 0 0 0
2551 73 2 0.0000000000000000e+00 -1.4932305554044251e+02 -2.9204108193376708e+01 -6.5071990054405873e+01 0 0 0
2552 73 1 0.0000000000000000e+00 -1.5631468130962196e+02 -3.3228345721750301e+01 -5.9097202381195864e+01 0 0 0
6295 180 4 0.0000000000000000e+00 -1.3647849953149486e+02 -3.3463784323303727e+01 -6.9760578473688128e+01 0 0 0
2550 73 2 0.0000000000000000e+00 -1.4110558369351219e+02 -2.8111701911715393e+01 -5.8483375948565801e+01 0 0 0
2549 73 2 0.0000000000000000e+00 -1.3202261785177913e+02 -2.6446182051448179e+01 -6.2934165166181053e+01 0 0 0
2548 73 2 0.0000000000000000e+00 -1.2595614121772822e+02 -3.2601595282279924e+01 -6.6994101286041868e+01 0 0 0
4756 136 4 0.0000000000000000e+00 -1.0223355825354537e+02 -2.6404930920556932e+01 -6.2009442962943957e+01 0 0 0
1391 40 2 0.0000000000000000e+00 -8.9678470739092219e+01 -3.4042163973667542e+01 -6.8422877106616511e+01 0 0 0
1392 40 2 0.0000000000000000e+00 -8.3749560543906426e+01 -2.9187570134809874e+01 -6.2093307951032301e+01 0 0 0
6518 187 4 0.0000000000000000e+00 -7.7751222564283125e+01 -2.4238326652725359e+01 -6.9472132028324978e+01 0 0 0
6487 186 4 0.0000000000000000e+00 -1.5992037813285415e+02 -1.4142012818363305e+01 -6.6863707309640859e+01 0 0 0
2925 84 2 0.0000000000000000e+00 -1.4503060798444841e+02 -1.8604686813796658e+01 -5.8811846687694839e+01 0 0 0
6292 180 4 0.0000000000000000e+00 -1.4202846871355450e+02 -1.2420489582562373e+01 -6.9053275489820138e+01 0 0 0
2924 84 2 0.0000000000000000e+00 -1.3631517076294753e+02 -1.4431659815396397e+01 -6.1407065481249461e+01 0 0 0
4755 136 4 0.0000000000000000e+00 -9.6385944831192162e+01 -2.1664986148371359e+01 -6.8747709941367702e+01 0 0 0
6486 186 3 0.0000000000000000e+00 -1.6265271464011758e+02 -5.0636310187931182e+00 -6.3559515832671003e+01 0 0 0
1718 50 2 0.0000000000000000e+00 -1.5225636844166482e+02 -6.8925288539186278e+00 -6.5871957606694906e+01 0 0 0
2923 84 1 0.0000000000000000e+00 -1.3063010384314418e+02 -5.8634322260063039e+00 -5.9759913031835154e+01 0 0 0
5884 169 3 0.0000000000000000e+00 -1.2349598907376824e+02 -5.4138029340297011e+00 -6.8692954454947127e+01 0 0 0
2922 84 2 0.0000000000000000e+00 -1.2551386510720653e+02 2.9284618242226963e+00 -5.8730771913137090e+01 0 0 0
5885 169 4 0.0000000000000000e+00 -1.1581392447192330e+02 -1.6543389094804126e+00 -6.3960474249217796e+01 0 0 0
5886 169 4 0.0000000000000000e+00 -1.0809552203801606e+02 -5.3979795993646515e+00 -5.9120029547494013e+01 0 0 0
5896 169 4 0.0000000000000000e+00 -9.2974821656083620e+01 -9.0995189282352591e+00 -6.2795459037191357e+01 0 0 0
5894 169 4 0.0000000000000000e+00 -8.3281388335796549e+01 3.1181443806916458e+00 -5.8572356312779199e+01 0 0 0
3712 107 4 0.0000000000000000e+00 -1.6099757107268638e+02 1.6545670429308085e+01 -6.6731656691053587e+01 0 0 0
1923 55 2 0.0000000000000000e+00 -1.5143464368406188e+02 7.0462841139559877e+00 -7.1307337611017317e+01 0 0 0
1922 55 1 0.0000000000000000e+00 -1.4521707833857420e+02 1.3637971191882006e+01 -6.7080556531746552e+01 0 0 0
2920 84 2 0.0000000000000000e+00 -1.1309596557447601e+02 1.5079180801967299e+01 -6.2103658625003668e+01 0 0 0
2919 84 2 0.0000000000000000e+00 -1.1016968977802581e+02 1.5790724061697423e+01 -7.1273301888268918e+01 0 0 0
3713 107 4 0.0000000000000000e+00 -1.5592078277130449e+02 2.4526801018871002e+01 -6.3248286507695397e+01 0 0 0