LAMMPS data file via write_data, version 5 Jun 2019, timestep = 400000000

7000 atoms
4 atom types
7287 bonds
3 bond types
6600 angles
2 angle types

-5.0000000000000000e+02 5.0000000000000000e+02 xlo xhi
-5.0000000000000000e+02 5.0000000000000000e+02 ylo yhi
-5.0000000000000000e+02 5.0000000000000000e+02 zlo zhi

Masses

1 1000
2 1000
3 1000
4 1000

Pair Coeffs # lj/cut

1 0.178 10
2 0.178 10
3 0.178 10
4 0.178 10

Angle Coeffs # cosine

1 2
2 2

Atoms # full

6510 186 4 0.0000000000000000e+00 -8.8024292656830355e+01 -1.1473013153115123e+02 -1.6579665004880755e+02 0 0 0
6509 186 4 0.0000000000000000e+00 -8.3093621118977822e+01 -1.0556218800093457e+02 -1.6828073944986733e+02 0 0 0
6508 186 4 0.0000000000000000e+00 -7.7172694588611392e+01 -1.0074927367223681e+02 -1.6180261902181445e+02 0 0 0
2226 64 2 0.0000000000000000e+00 -5.7008148014427071e+01 -9.9115280425674271e+01 -1.6016207593310031e+02 0 0 0
4445 127 4 0.0000000000000000e+00 -6.8343664686121983e+01 -8.5994073804169233e+01 -1.7034512277296005e+02 0 0 0
4444 127 4 0.0000000000000000e+00 -6.4938178986433186e+01 -7.7238059772743043e+01 -1.6701181528606767e+02 0 0 0
4443 127 4 0.0000000000000000e+00 -5.9074988244099274e+01 -6.9579862027826792e+01 -1.6515335899228606e+02 0 0 0
4442 127 3 0.0000000000000000e+00 -5.3537556115238758e+01 -6.2295144886468478e+01 -1.6172893645910773e+02 0 0 0
2232 64 2 0.0000000000000000e+00 -3.9238711361272983e+01 -4.9336921239693361e+01 -1.6556911373787511e+02 0 0 0
4439 127 4 0.0000000000000000e+00 -6.4144757157976187e+01 -3.7943700340471068e+01 -1.6028359645203602e+02 0 0 0
2234 64 2 0.0000000000000000e+00 -4.4025260825616549e+01 -3.6857515923077401e+01 -1.6636728017340684e+02 0 0 0
2233 64 2 0.0000000000000000e+00 -3.7849675658666627e+01 -4.1657785595698442e+01 -1.7220631313306876e+02 0 0 0
4438 127 4 0.0000000000000000e+00 -6.9086933685769708e+01 -3.1243102842390918e+01 -1.6524400903499082e+02 0 0 0
4437 127 4 0.0000000000000000e+00 -7.5159421818263624e+01 -2.4669059302559283e+01 -1.6081711662675255e+02 0 0 0
4430 127 4 0.0000000000000000e+00 -1.1757733229660958e+02 1.7708182503193935e+01 -1.6506596808737967e+02 0 0 0
2223 64 1 0.0000000000000000e+00 -7.2416213611588603e+01 -1.1131016738024231e+02 -1.4946733685536842e+02 0 0 0
2225 64 2 0.0000000000000000e+00 -5.5587396388160037e+01 -1.0744565506410464e+02 -1.5499121443158006e+02 0 0 0
2224 64 2 0.0000000000000000e+00 -6.4946867887316799e+01 -1.1061322834586254e+02 -1.5661904074737353e+02 0 0 0
6507 186 3 0.0000000000000000e+00 -7.0719799077316921e+01 -1.0174983766117197e+02 -1.5436785965743138e+02 0 0 0
2092 60 2 0.0000000000000000e+00 -7.5661234129258801e+01 -9.0989465164486376e+01 -1.4700775090244207e+02 0 0 0
6506 186 4 0.0000000000000000e+00 -6.3923420021194502e+01 -1.0337559461697955e+02 -1.4689350491340278e+02 0 0 0
2227 64 2 0.0000000000000000e+00 -5.3929408875820208e+01 -9.0178799067316262e+01 -1.5769628064306795e+02 0 0 0
2094 60 2 0.0000000000000000e+00 -8.9005360458130411e+01 -8.0123967500558066e+01 -1.4614270006470056e+02 0 0 0
5426 156 4 0.0000000000000000e+00 -7.3207736210118838e+01 -8.5189161181289791e+01 -1.5865909864266743e+02 0 0 0
2093 60 2 0.0000000000000000e+00 -8.1149136952972668e+01 -8.3917293859336127e+01 -1.5053960006362738e+02 0 0 0
5427 156 4 0.0000000000000000e+00 -6.4312507546779699e+01 -8.1637479017514892e+01 -1.5556254808647861e+02 0 0 0
5428 156 4 0.0000000000000000e+00 -5.8748552722183177e+01 -8.2101045254244170e+01 -1.4713751274968118e+02 0 0 0
2228 64 2 0.0000000000000000e+00 -5.1938393202174737e+01 -8.0306270378306252e+01 -1.5844270222385666e+02 0 0 0
1632 47 2 0.0000000000000000e+00 -4.4171561113284255e+01 -8.4033781484396627e+01 -1.4866908567477873e+02 0 0 0
1633 47 2 0.0000000000000000e+00 -3.5767089619847454e+01 -7.9620485233907488e+01 -1.4802966354316166e+02 0 0 0
6511 187 4 0.0000000000000000e+00 -1.0172269500138336e+02 -7.2763316796072928e+01 -1.5635433391333027e+02 0 0 0
6512 187 4 0.0000000000000000e+00 -1.0282040328497594e+02 -6.5339245811126190e+01 -1.5024082087454622e+02 0 0 0
1629 47 2 0.0000000000000000e+00 -6.5127324327672966e+01 -6.5776013305850356e+01 -1.4816824639571766e+02 0 0 0
1630 47 2 0.0000000000000000e+00 -5.8228630688686366e+01 -7.2309920703354351e+01 -1.4903880054723217e+02 0 0 0
2229 64 2 0.0000000000000000e+00 -5.0107055294276527e+01 -7.0939210860047297e+01 -1.5677553273281563e+02 0 0 0
2230 64 1 0.0000000000000000e+00 -4.4573880896279483e+01 -6.3264786147494497e+01 -1.5446110930099010e+02 0 0 0
1634 47 2 0.0000000000000000e+00 -2.8178979103285968e+01 -7.2784111654714266e+01 -1.4802698049301489e+02 0 0 0
4748 136 4 0.0000000000000000e+00 -8.3020709930062026e+01 -5.6478836751589178e+01 -1.4710573193789835e+02 0 0 0
4747 136 4 0.0000000000000000e+00 -8.0181300443914097e+01 -5.0935989548422569e+01 -1.5431137408569836e+02 0 0 0
4441 127 4 0.0000000000000000e+00 -5.5930363196691950e+01 -5.2843970926768598e+01 -1.5888862077752060e+02 0 0 0
2231 64 2 0.0000000000000000e+00 -4.4658589966631496e+01 -5.4381049065397434e+01 -1.5857187423197857e+02 0 0 0
4746 136 4 0.0000000000000000e+00 -7.4898779310619560e+01 -4.2522041237947995e+01 -1.5185478562099414e+02 0 0 0
4745 136 4 0.0000000000000000e+00 -6.8674779099943606e+01 -3.5906677534699028e+01 -1.4643824710828713e+02 0 0 0
4440 127 4 0.0000000000000000e+00 -5.9571958944374778e+01 -4.4775896652170708e+01 -1.5448442529793405e+02 0 0 0
4436 127 4 0.0000000000000000e+00 -8.3549224303333929e+01 -2.3299371535712353e+01 -1.5514944730276343e+02 0 0 0
4744 136 4 0.0000000000000000e+00 -6.5209504760254632e+01 -2.6364336871143891e+01 -1.4964393743850675e+02 0 0 0
2235 64 2 0.0000000000000000e+00 -4.5976641810396025e+01 -3.0546304605789910e+01 -1.5857486819328477e+02 0 0 0
2236 64 2 0.0000000000000000e+00 -4.9709946828011901e+01 -2.8656644400028171e+01 -1.4956217263864539e+02 0 0 0
4739 136 4 0.0000000000000000e+00 -3.2677757772870521e+01 -2.9118415601418242e+01 -1.5117754265003973e+02 0 0 0
2555 73 2 0.0000000000000000e+00 -1.2716873846496138e+02 -2.0981023686512231e+01 -1.5117656184500424e+02 0 0 0
2077 60 2 0.0000000000000000e+00 -1.1325979831094361e+02 -8.9027230766564163e+00 -1.5277896414360129e+02 0 0 0
4434 127 4 0.0000000000000000e+00 -9.7422577970194411e+01 -9.5342080925119372e+00 -1.4960690538200217e+02 0 0 0
4435 127 3 0.0000000000000000e+00 -9.0231825854299288e+01 -1.7418818884083414e+01 -1.5060010457200707e+02 0 0 0
5531 159 4 0.0000000000000000e+00 -6.7580156729889950e+01 -1.3913122801674126e+01 -1.4861044039295979e+02 0 0 0
4743 136 3 0.0000000000000000e+00 -5.8821240474349338e+01 -1.7841249448957548e+01 -1.4930590687188453e+02 0 0 0
4741 136 4 0.0000000000000000e+00 -4.3105559578152310e+01 -1.4640444094600012e+01 -1.5132575853126377e+02 0 0 0
4740 136 4 0.0000000000000000e+00 -3.4801601401194112e+01 -1.9662474348359172e+01 -1.4918299633304386e+02 0 0 0
2075 60 2 0.0000000000000000e+00 -1.2654954530616419e+02 4.6199488690919281e+00 -1.5224540709184859e+02 0 0 0
2076 60 1 0.0000000000000000e+00 -1.2073014903283666e+02 -2.7831664861767997e+00 -1.5089202285655711e+02 0 0 0
4432 127 4 0.0000000000000000e+00 -1.1315099570215425e+02 2.4500416866871317e+00 -1.5444470041267556e+02 0 0 0
4433 127 4 0.0000000000000000e+00 -1.0415647018163706e+02 -2.6006452705599195e+00 -1.5226319371512452e+02 0 0 0
2073 60 2 0.0000000000000000e+00 -1.3744872992506012e+02 1.7257256861959853e+01 -1.5137363622037768e+02 0 0 0
2074 60 2 0.0000000000000000e+00 -1.2961130753285096e+02 1.3165735376141512e+01 -1.5600765893422582e+02 0 0 0
4431 127 4 0.0000000000000000e+00 -1.1694282228655092e+02 1.0971771921954028e+01 -1.5750159441736346e+02 0 0 0
1806 52 2 0.0000000000000000e+00 -7.3178458353571727e+01 1.9545424817803038e+01 -1.4896483057420889e+02 0 0 0
5142 147 3 0.0000000000000000e+00 -3.1872846811860551e+01 1.8597162137192388e+01 -1.5209045543453206e+02 0 0 0
2221 64 2 0.0000000000000000e+00 -8.9769432979411008e+01 -1.0543997909249846e+02 -1.4013957459647364e+02 0 0 0
2222 64 2 0.0000000000000000e+00 -8.0937162622873288e+01 -1.0804997378055543e+02 -1.4542442041109595e+02 0 0 0
6504 186 4 0.0000000000000000e+00 -6.3838781809867733e+01 -1.0512182993671006e+02 -1.3420036513065170e+02 0 0 0
1373 40 2 0.0000000000000000e+00 -9.6337732489385374e+01 -9.1554595588388324e+01 -1.3362196888484644e+02 0 0 0
1374 40 2 0.0000000000000000e+00 -8.6621088648140827e+01 -9.1851194851281249e+01 -1.3516786851659427e+02 0 0 0
1375 40 2 0.0000000000000000e+00 -7.8444426104549621e+01 -9.7147363805565377e+01 -1.3366790797099085e+02 0 0 0
2091 60 2 0.0000000000000000e+00 -6.9157305788017112e+01 -9.1986564778675316e+01 -1.4025902191923990e+02 0 0 0
6505 186 4 0.0000000000000000e+00 -5.6176378763008685e+01 -1.0300414340479600e+02 -1.4017094853563574e+02 0 0 0
2090 60 1 0.0000000000000000e+00 -6.0184765746494264e+01 -9.0542094316177867e+01 -1.3670437454219046e+02 0 0 0
2095 60 2 0.0000000000000000e+00 -9.7958877995159014e+01 -8.0803851642403473e+01 -1.4301282782180670e+02 0 0 0
1372 40 2 0.0000000000000000e+00 -1.0460677372028556e+02 -8.6706167722308720e+01 -1.3253413140150425e+02 0 0 0
6334 181 4 0.0000000000000000e+00 -8.5945203923229315e+01 -7.9088632687567639e+01 -1.3440941098071866e+02 0 0 0
6333 181 4 0.0000000000000000e+00 -7.9113215984826908e+01 -8.6202862431343789e+01 -1.3658965638984054e+02 0 0 0
5429 156 3 0.0000000000000000e+00 -5.1592814317260320e+01 -8.6231575154640652e+01 -1.4116220263488518e+02 0 0 0
1631 47 2 0.0000000000000000e+00 -5.0924701875563898e+01 -7.7131327995659191e+01 -1.4465034910217270e+02 0 0 0
5430 156 4 0.0000000000000000e+00 -4.2789992482186022e+01 -8.7791417712188931e+01 -1.3684332894308412e+02 0 0 0
5431 156 4 0.0000000000000000e+00 -3.4660328552687943e+01 -8.2371148049213488e+01 -1.3547112275795766e+02 0 0 0
2097 60 1 0.0000000000000000e+00 -1.0834879005262285e+02 -6.7347838918466238e+01 -1.3917843556495984e+02 0 0 0
2096 60 2 0.0000000000000000e+00 -1.0398697176176049e+02 -7.5825866053806820e+01 -1.3642360878551813e+02 0 0 0
6513 187 4 0.0000000000000000e+00 -9.9665323115279094e+01 -6.3237491228643457e+01 -1.4131712450476334e+02 0 0 0
2099 60 2 0.0000000000000000e+00 -1.2066581257087228e+02 -5.2180185754641151e+01 -1.3868060840354215e+02 0 0 0
2098 60 2 0.0000000000000000e+00 -1.1336870605680450e+02 -5.9072162761334560e+01 -1.3862869823860447e+02 0 0 0
4749 136 4 0.0000000000000000e+00 -8.7886108897244711e+01 -5.5140864701773211e+01 -1.3876134463522948e+02 0 0 0
5541 159 3 0.0000000000000000e+00 -7.2646311287613543e+01 -5.8161558588683270e+01 -1.3409291847631232e+02 0 0 0
5540 159 4 0.0000000000000000e+00 -7.6501936799094011e+01 -4.9229702107449015e+01 -1.3756879248718508e+02 0 0 0
1628 47 1 0.0000000000000000e+00 -6.8431751596107219e+01 -5.7840543713964202e+01 -1.4418956351821549e+02 0 0 0
1627 47 2 0.0000000000000000e+00 -6.5810435366372701e+01 -4.9009224718264278e+01 -1.4085592285697109e+02 0 0 0
1624 47 2 0.0000000000000000e+00 -4.1970663210323977e+01 -4.8729308280925338e+01 -1.3512871340450124e+02 0 0 0
1623 47 2 0.0000000000000000e+00 -3.2399998223373906e+01 -5.1339537496805576e+01 -1.3726299539934649e+02 0 0 0
2100 60 2 0.0000000000000000e+00 -1.2303043573676038e+02 -4.2829106139941366e+01 -1.3668162141650112e+02 0 0 0
3011 87 2 0.0000000000000000e+00 -1.0802286043460938e+02 -4.1373564808623726e+01 -1.3603703388699205e+02 0 0 0
5538 159 4 0.0000000000000000e+00 -8.8046236927741816e+01 -3.5989192301281562e+01 -1.3289958674775872e+02 0 0 0
5539 159 4 0.0000000000000000e+00 -8.2972157077170479e+01 -4.1598060895657483e+01 -1.3867437136026999e+02 0 0 0
1626 47 2 0.0000000000000000e+00 -6.0165571008205774e+01 -4.1993141242156561e+01 -1.3596563011364873e+02 0 0 0
1625 47 2 0.0000000000000000e+00 -5.0683443809846217e+01 -4.4722614751774756e+01 -1.3478557362465659e+02 0 0 0
2554 73 2 0.0000000000000000e+00 -1.2684745793806179e+02 -2.5993336678423290e+01 -1.4242572520435573e+02 0 0 0
2553 73 2 0.0000000000000000e+00 -1.2805774672760296e+02 -3.2700617023370334e+01 -1.3526081365879355e+02 0 0 0
3012 87 2 0.0000000000000000e+00 -1.0580092888255670e+02 -3.3673048198178719e+01 -1.4092399815280527e+02 0 0 0
3013 87 2 0.0000000000000000e+00 -9.8123285927786952e+01 -2.8800174288096585e+01 -1.4394250934217573e+02 0 0 0
3014 87 1 0.0000000000000000e+00 -8.8952017203917009e+01 -2.5497908807478176e+01 -1.4270889808642781e+02 0 0 0
3015 87 2 0.0000000000000000e+00 -8.0148007461994140e+01 -2.4920976923027254e+01 -1.3725364763303972e+02 0 0 0
2237 64 1 0.0000000000000000e+00 -5.6633516011555315e+01 -2.6788702102181901e+01 -1.4344040226055188e+02 0 0 0
2238 64 2 0.0000000000000000e+00 -5.5139305822482775e+01 -2.1661097923715420e+01 -1.3478321436556843e+02 0 0 0
6313 181 4 0.0000000000000000e+00 -1.2464891554819921e+02 -1.7246229975027845e+01 -1.3792326360438889e+02 0 0 0
6295 180 4 0.0000000000000000e+00 -1.3432862376532503e+02 -1.1724724626182535e+01 -1.3326304457041360e+02 0 0 0
2079 60 2 0.0000000000000000e+00 -1.1099380571123750e+02 -1.9594768947985123e+01 -1.3634618672369268e+02 0 0 0
2078 60 2 0.0000000000000000e+00 -1.1157147166024086e+02 -1.4485274609768906e+01 -1.4451436693941523e+02 0 0 0
6312 181 4 0.0000000000000000e+00 -1.2098679497238085e+02 -8.9292111712493103e+00 -1.4275635909191638e+02 0 0 0
5532 159 4 0.0000000000000000e+00 -7.0823111239867060e+01 -1.0461136477969891e+01 -1.3894569551185569e+02 0 0 0
4742 136 4 0.0000000000000000e+00 -5.0074102644099220e+01 -1.7201565513319537e+01 -1.4524184291970138e+02 0 0 0
6293 180 4 0.0000000000000000e+00 -1.3897209021061033e+02 5.5988120161793127e+00 -1.3297483749249071e+02 0 0 0
6294 180 4 0.0000000000000000e+00 -1.3912081876423545e+02 -3.5724221070974873e+00 -1.3729918288927715e+02 0 0 0
6311 181 3 0.0000000000000000e+00 -1.1267468905965728e+02 -2.9769904490272467e+00 -1.4329605252189245e+02 0 0 0
6310 181 4 0.0000000000000000e+00 -1.0635206298541100e+02 3.1935449377123497e+00 -1.3843449948573021e+02 0 0 0
1801 52 2 0.0000000000000000e+00 -9.8231661037018057e+01 -3.2478280173951672e+00 -1.3372467226259320e+02 0 0 0
1802 52 2 0.0000000000000000e+00 -8.8157345804084414e+01 -8.5664760483687263e-01 -1.3360705726258817e+02 0 0 0
1803 52 1 0.0000000000000000e+00 -7.9078180357938976e+01 -2.5985738442392847e+00 -1.3745259037716269e+02 0 0 0
1804 52 2 0.0000000000000000e+00 -7.3778824928319139e+01 5.9337713313976383e+00 -1.3760294144672093e+02 0 0 0
6309 181 4 0.0000000000000000e+00 -9.6771120307230774e+01 6.6179812151069486e+00 -1.3650354758775222e+02 0 0 0
6308 181 4 0.0000000000000000e+00 -8.7940891826219726e+01 1.0356973909225237e+01 -1.3968544377367147e+02 0 0 0
1805 52 2 0.0000000000000000e+00 -6.9489449104653957e+01 1.4127297467436867e+01 -1.4140019717304008e+02 0 0 0
2169 62 2 0.0000000000000000e+00 -1.2599553796715115e+02 -1.8250178128510584e+02 -1.2294409665943230e+02 0 0 0
2170 62 2 0.0000000000000000e+00 -1.3256357546519618e+02 -1.7623861229875348e+02 -1.2237516878937552e+02 0 0 0
2168 62 2 0.0000000000000000e+00 -1.1571968877115825e+02 -1.8461299604435126e+02 -1.2388363515089613e+02 0 0 0
2167 62 1 0.0000000000000000e+00 -1.0675852018862686e+02 -1.8068588734267041e+02 -1.2295421390882778e+02 0 0 0
2166 62 2 0.0000000000000000e+00 -1.0761827688165043e+02 -1.7143769492216472e+02 -1.1911794629399860e+02 0 0 0
2219 64 2 0.0000000000000000e+00 -9.7986139317375972e+01 -1.0837120273376651e+02 -1.2427375682270112e+02 0 0 0
2220 64 2 0.0000000000000000e+00 -9.4120075974844184e+01 -1.0356881423376598e+02 -1.3169917132136746e+02 0 0 0
6503 186 4 0.0000000000000000e+00 -6.5688358523018380e+01 -1.0762496499820675e+02 -1.2484484208290930e+02 0 0 0
4200 120 4 0.0000000000000000e+00 -9.4660654994531470e+01 -1.0204257725879857e+02 -1.1887237205640702e+02 0 0 0
6499 186 4 0.0000000000000000e+00 -9.2826939633671230e+01 -9.0012769796494368e+01 -1.1984984636271331e+02 0 0 0
1376 40 1 0.0000000000000000e+00 -7.1018347527765471e+01 -9.9513005129332811e+01 -1.2742784667776843e+02 0 0 0
1371 40 2 0.0000000000000000e+00 -1.1058965001023803e+02 -8.9503093571405444e+01 -1.2538534189962527e+02 0 0 0
6498 186 4 0.0000000000000000e+00 -9.9758606751403661e+01 -8.3553356365084852e+01 -1.2143499002657546e+02 0 0 0
6332 181 3 0.0000000000000000e+00 -7.4408209581130123e+01 -8.9463361436083531e+01 -1.2798657188220950e+02 0 0 0
6331 181 4 0.0000000000000000e+00 -6.8616858798212263e+01 -8.7083243635257674e+01 -1.2062227196463040e+02 0 0 0
2089 60 2 0.0000000000000000e+00 -5.7513628354185009e+01 -8.4351198441665261e+01 -1.2922561935909206e+02 0 0 0
2088 60 2 0.0000000000000000e+00 -6.2871929390793390e+01 -7.7411587277697947e+01 -1.2478908750392945e+02 0 0 0
1540 44 2 0.0000000000000000e+00 -4.7205440606129983e+01 -7.6963007271045925e+01 -1.3213871557229456e+02 0 0 0
2521 73 2 0.0000000000000000e+00 -1.1056595071205376e+02 -7.3005939542862990e+01 -1.2015839140967850e+02 0 0 0
6514 187 3 0.0000000000000000e+00 -1.0113854258118336e+02 -6.5148349261879929e+01 -1.3123853638990005e+02 0 0 0
6335 181 4 0.0000000000000000e+00 -9.0784681924215349e+01 -7.1645513281559673e+01 -1.3215065397080937e+02 0 0 0
5543 159 4 0.0000000000000000e+00 -8.3523246651790657e+01 -6.8726245951156301e+01 -1.2489258374624771e+02 0 0 0
5544 159 4 0.0000000000000000e+00 -9.1077129413340685e+01 -7.0574754170398208e+01 -1.1893901211335883e+02 0 0 0
5542 159 4 0.0000000000000000e+00 -7.5567355146594181e+01 -6.6265892749415869e+01 -1.2994767436373900e+02 0 0 0
2086 60 2 0.0000000000000000e+00 -7.4115395185586280e+01 -6.3358537800522953e+01 -1.1924051833373321e+02 0 0 0
2087 60 2 0.0000000000000000e+00 -6.7104099117621857e+01 -7.0015925738752259e+01 -1.1950353964270035e+02 0 0 0
1538 44 2 0.0000000000000000e+00 -5.6293322475699995e+01 -6.5339050505390631e+01 -1.1920384886112814e+02 0 0 0
1539 44 2 0.0000000000000000e+00 -5.1763056339290088e+01 -7.0297726711469764e+01 -1.2605136048377180e+02 0 0 0
6515 187 4 0.0000000000000000e+00 -1.0564224951916653e+02 -6.1564827647869869e+01 -1.2375564454644427e+02 0 0 0
4751 136 4 0.0000000000000000e+00 -9.6528989376278574e+01 -5.7386274961272129e+01 -1.2202883383582481e+02 0 0 0
4750 136 3 0.0000000000000000e+00 -9.1824479404660423e+01 -5.3524257100368381e+01 -1.3010440513956240e+02 0 0 0
2085 60 2 0.0000000000000000e+00 -7.8334728178258686e+01 -5.4949136787407987e+01 -1.2095510226511912e+02 0 0 0
4547 130 3 0.0000000000000000e+00 -3.7789510737323461e+01 -6.0023098771859154e+01 -1.1919475670975639e+02 0 0 0
6298 180 4 0.0000000000000000e+00 -1.3605241989541892e+02 -3.8848006789543220e+01 -1.1928735202287933e+02 0 0 0
2551 73 2 0.0000000000000000e+00 -1.2597845560897031e+02 -4.1080478386184687e+01 -1.2017500347332361e+02 0 0 0
2552 73 1 0.0000000000000000e+00 -1.3012779215989173e+02 -3.9984840663666361e+01 -1.2893865635181120e+02 0 0 0
2082 60 2 0.0000000000000000e+00 -1.0095109781749358e+02 -4.0146435205054580e+01 -1.2428617821381236e+02 0 0 0
2084 60 2 0.0000000000000000e+00 -8.4044358478304318e+01 -4.8494377718160429e+01 -1.2631187639119412e+02 0 0 0
2083 60 1 0.0000000000000000e+00 -9.1900694668679890e+01 -4.2997881988169489e+01 -1.2688103100296696e+02 0 0 0
6323 181 4 0.0000000000000000e+00 -5.8475351352748341e+01 -4.8173229448475666e+01 -1.2329842111566191e+02 0 0 0
3018 87 2 0.0000000000000000e+00 -5.8753760214350358e+01 -3.7935431353920805e+01 -1.2369195207873057e+02 0 0 0
6322 181 4 0.0000000000000000e+00 -6.7539120691330041e+01 -4.4059740149263163e+01 -1.2116085702982737e+02 0 0 0
3019 87 2 0.0000000000000000e+00 -4.9851685384083005e+01 -4.2268125591592145e+01 -1.2199962215907600e+02 0 0 0
6161 177 4 0.0000000000000000e+00 -3.4623810694084014e+01 -3.7326488043818458e+01 -1.2908989523075087e+02 0 0 0
3020 87 2 0.0000000000000000e+00 -4.0469302507561096e+01 -4.6190265499219670e+01 -1.2010666880597104e+02 0 0 0
6297 180 3 0.0000000000000000e+00 -1.3503455469492400e+02 -3.0492971569163966e+01 -1.2542328136043962e+02 0 0 0
6314 181 4 0.0000000000000000e+00 -1.2205676528355485e+02 -2.3321857599334798e+01 -1.3020751596789358e+02 0 0 0
6315 181 4 0.0000000000000000e+00 -1.1958004354629806e+02 -2.6031386909315152e+01 -1.2127619007845539e+02 0 0 0
2080 60 2 0.0000000000000000e+00 -1.1247812137440476e+02 -2.5390245781626856e+01 -1.2823862884016685e+02 0 0 0
2081 60 2 0.0000000000000000e+00 -1.0733964053689193e+02 -3.2856184886459239e+01 -1.2409078856598325e+02 0 0 0
5537 159 4 0.0000000000000000e+00 -9.6469888266154982e+01 -3.0386297795621878e+01 -1.3056648534511422e+02 0 0 0
3016 87 2 0.0000000000000000e+00 -7.6660983886986671e+01 -3.1529884381526834e+01 -1.3108493822907633e+02 0 0 0
3017 87 2 0.0000000000000000e+00 -6.8219742086278117e+01 -3.3506430914814835e+01 -1.2609370947949918e+02 0 0 0
6162 177 4 0.0000000000000000e+00 -3.6985104198829845e+01 -2.8069141309865884e+01 -1.2578562232203683e+02 0 0 0
6296 180 4 0.0000000000000000e+00 -1.3530438578245074e+02 -2.1134908780048882e+01 -1.3008236821540086e+02 0 0 0
5536 159 4 0.0000000000000000e+00 -9.7023950154346096e+01 -2.0312385054443183e+01 -1.2897195416571131e+02 0 0 0
5535 159 4 0.0000000000000000e+00 -9.0842258600844687e+01 -1.2345062025972386e+01 -1.2535381061354897e+02 0 0 0
2240 64 2 0.0000000000000000e+00 -7.3643440550441241e+01 -1.9413861399526294e+01 -1.3218439698275847e+02 0 0 0
5533 159 4 0.0000000000000000e+00 -7.3767539767241615e+01 -8.3096791218856900e+00 -1.2914925303683535e+02 0 0 0
2239 64 2 0.0000000000000000e+00 -6.3746827456660505e+01 -1.7636365268887463e+01 -1.3225154705438791e+02 0 0 0
6163 177 4 0.0000000000000000e+00 -3.5681482507743880e+01 -1.8036768552829564e+01 -1.2305432245947040e+02 0 0 0
6164 177 3 0.0000000000000000e+00 -3.4617660954680794e+01 -9.2549356858848277e+00 -1.2724999647934156e+02 0 0 0
3310 95 2 0.0000000000000000e+00 -1.3821930482490737e+02 -4.5402708754769447e+00 -1.1947653148480015e+02 0 0 0
1799 52 2 0.0000000000000000e+00 -1.1625643477004806e+02 -1.4695629211116832e+00 -1.3211858502966041e+02 0 0 0
1800 52 2 0.0000000000000000e+00 -1.0720938411531925e+02 -5.9293946185427213e+00 -1.2950025561108029e+02 0 0 0
5534 159 3 0.0000000000000000e+00 -8.3474702436780802e+01 -6.9965698015530426e+00 -1.2822375761588293e+02 0 0 0
5902 169 4 0.0000000000000000e+00 -9.4832332105991853e+01 1.8452145377567590e+00 -1.2268380466470276e+02 0 0 0
3207 92 2 0.0000000000000000e+00 -5.7596797636666885e+01 2.1928861692641571e-01 -1.2041732384823307e+02 0 0 0
6165 177 4 0.0000000000000000e+00 -3.4229123247282331e+01 6.0967429266436812e-01 -1.2437822113532380e+02 0 0 0
6291 180 4 0.0000000000000000e+00 -1.5232294112516800e+02 8.7485767377989703e+00 -1.1936063884766233e+02 0 0 0
6292 180 4 0.0000000000000000e+00 -1.4553437449382213e+02 9.1056553283044241e+00 -1.2647361446335718e+02 0 0 0
1795 52 2 0.0000000000000000e+00 -1.4306059325511325e+02 1.9059448275387552e+01 -1.2706245215668682e+02 0 0 0
1796 52 1 0.0000000000000000e+00 -1.3495790509607627e+02 1.6416725477554401e+01 -1.2238702673178966e+02 0 0 0
1797 52 2 0.0000000000000000e+00 -1.3069996687124129e+02 8.9215193403070803e+00 -1.2767942605804937e+02 0 0 0
1798 52 2 0.0000000000000000e+00 -1.2191001537808266e+02 7.1222214871605383e+00 -1.3171345074050515e+02 0 0 0
5903 169 4 0.0000000000000000e+00 -9.9145920982712852e+01 1.0531330365447420e+01 -1.2363951960198038e+02 0 0 0
5904 169 4 0.0000000000000000e+00 -1.0339635007815066e+02 1.9584451195735227e+01 -1.2598372477678346e+02 0 0 0
577 17 2 0.0000000000000000e+00 -8.9734625730724275e+01 1.7792918955211050e+01 -1.2768154153415308e+02 0 0 0
6166 177 4 0.0000000000000000e+00 -3.5056912925088632e+01 1.0514308408007484e+01 -1.2502821527908371e+02 0 0 0
2165 62 2 0.0000000000000000e+00 -1.1195539291211890e+02 -1.6302964708435542e+02 -1.1575081038674359e+02 0 0 0
2164 62 2 0.0000000000000000e+00 -1.0889476624079944e+02 -1.5583763031520192e+02 -1.0930850820974840e+02 0 0 0
2155 62 2 0.0000000000000000e+00 -6.0770729909411706e+01 -1.1779629915528011e+02 -1.0565280838803827e+02 0 0 0
2153 62 1 0.0000000000000000e+00 -4.4599892300922363e+01 -1.2418153684615737e+02 -1.0819336559068131e+02 0 0 0
2218 64 2 0.0000000000000000e+00 -1.0154710651820879e+02 -1.1212182752147373e+02 -1.1603740650967912e+02 0 0 0
2217 64 2 0.0000000000000000e+00 -1.0042778364787273e+02 -1.0434463499600979e+02 -1.0932930636948359e+02 0 0 0
2158 62 2 0.0000000000000000e+00 -8.9659992780598387e+01 -1.1613031965653914e+02 -1.0890685168912242e+02 0 0 0
6502 186 4 0.0000000000000000e+00 -7.2585892926779223e+01 -1.0798468999279045e+02 -1.1831964961475700e+02 0 0 0
2157 62 2 0.0000000000000000e+00 -8.0590100871483884e+01 -1.1561058682095863e+02 -1.0547889332767079e+02 0 0 0
1370 40 2 0.0000000000000000e+00 -1.1465938150159224e+02 -9.5411063079674506e+01 -1.1816536096574437e+02 0 0 0
1369 40 1 0.0000000000000000e+00 -1.1933010772317849e+02 -9.7095884349914115e+01 -1.0995056525340395e+02 0 0 0
4197 120 3 0.0000000000000000e+00 -1.0910133122927844e+02 -9.6287218575442665e+01 -1.0550588949354849e+02 0 0 0
4199 120 4 0.0000000000000000e+00 -1.0369940410369259e+02 -9.8092918754324387e+01 -1.1767990288099392e+02 0 0 0
4198 120 4 0.0000000000000000e+00 -1.0802478468148269e+02 -9.0492923833529929e+01 -1.1317145904093832e+02 0 0 0
6500 186 3 0.0000000000000000e+00 -8.5094236494454194e+01 -9.4317598718772530e+01 -1.1412436232428644e+02 0 0 0
2216 64 1 0.0000000000000000e+00 -9.5164110597261967e+01 -9.5795386947410705e+01 -1.0918530265474210e+02 0 0 0
6501 186 4 0.0000000000000000e+00 -7.8186775491493805e+01 -1.0104651298478166e+02 -1.1334887443726882e+02 0 0 0
1377 40 2 0.0000000000000000e+00 -6.7255162767565608e+01 -9.7106270319861039e+01 -1.1840021218344216e+02 0 0 0
1378 40 2 0.0000000000000000e+00 -6.1992317379693944e+01 -9.9224186113572756e+01 -1.1010739010615301e+02 0 0 0
6497 186 4 0.0000000000000000e+00 -1.0651669175264406e+02 -8.0590565510323231e+01 -1.1494328484125469e+02 0 0 0
2215 64 2 0.0000000000000000e+00 -9.1588414991739555e+01 -8.6894936596929341e+01 -1.0719243012241397e+02 0 0 0
6330 181 4 0.0000000000000000e+00 -6.5861818140512696e+01 -8.4429852458683385e+01 -1.1152975381769193e+02 0 0 0
4550 130 4 0.0000000000000000e+00 -5.6522958135700499e+01 -8.2424276864081236e+01 -1.1358056294720292e+02 0 0 0
1611 47 2 0.0000000000000000e+00 -4.0740198283513465e+01 -7.9487498058751569e+01 -1.1205370731551049e+02 0 0 0
1612 47 2 0.0000000000000000e+00 -3.4318376943299334e+01 -8.2482581789876221e+01 -1.1841211467224451e+02 0 0 0
6493 186 3 0.0000000000000000e+00 -1.3680992474697109e+02 -6.7035750015077966e+01 -1.0576439739227057e+02 0 0 0
2523 73 2 0.0000000000000000e+00 -1.2350322682446131e+02 -6.2720737486009064e+01 -1.0999951940215060e+02 0 0 0
6494 186 4 0.0000000000000000e+00 -1.2686370140217615e+02 -7.0762094171644819e+01 -1.0534799518531784e+02 0 0 0
2522 73 2 0.0000000000000000e+00 -1.1815785171960972e+02 -6.9161027512329369e+01 -1.1425155723336808e+02 0 0 0
6496 186 4 0.0000000000000000e+00 -1.1106259125635614e+02 -7.4555477416087001e+01 -1.0891526504252704e+02 0 0 0
5545 159 4 0.0000000000000000e+00 -9.6127821382270440e+01 -6.7543186072936138e+01 -1.1086540069673464e+02 0 0 0
2213 64 2 0.0000000000000000e+00 -8.4973400798903938e+01 -6.9286562260401723e+01 -1.0625949008386984e+02 0 0 0
4548 130 4 0.0000000000000000e+00 -4.2905954001133523e+01 -6.8334423781918332e+01 -1.1780526393725103e+02 0 0 0
4549 130 4 0.0000000000000000e+00 -5.0122211420932160e+01 -7.5177313012996450e+01 -1.1703473494273742e+02 0 0 0
6300 180 4 0.0000000000000000e+00 -1.3935860873476238e+02 -5.7872763335894163e+01 -1.1659928083050718e+02 0 0 0
6516 187 4 0.0000000000000000e+00 -1.1254509954456866e+02 -5.6611619300046627e+01 -1.1795023659374269e+02 0 0 0
6517 187 4 0.0000000000000000e+00 -1.1061468352793088e+02 -5.9776551653638037e+01 -1.0916310020276600e+02 0 0 0
4752 136 4 0.0000000000000000e+00 -9.9397892489019824e+01 -5.6435534448577890e+01 -1.1252886684563464e+02 0 0 0
4753 136 4 0.0000000000000000e+00 -1.0427835073408980e+02 -4.9513033193849218e+01 -1.0785267190641049e+02 0 0 0
2212 64 2 0.0000000000000000e+00 -8.5519273349557508e+01 -5.9422149772245248e+01 -1.0981000959860840e+02 0 0 0
6321 181 4 0.0000000000000000e+00 -7.4217736094055510e+01 -4.8885566591087354e+01 -1.1450413492590995e+02 0 0 0
1537 44 1 0.0000000000000000e+00 -5.7394821382859902e+01 -5.7500817964814573e+01 -1.1357728707181377e+02 0 0 0
1536 44 2 0.0000000000000000e+00 -5.5782944309629272e+01 -5.0494946724474396e+01 -1.0733541096651869e+02 0 0 0
6324 181 4 0.0000000000000000e+00 -4.9946447817785256e+01 -5.1143296740152813e+01 -1.1850916472197640e+02 0 0 0
6325 181 3 0.0000000000000000e+00 -4.6975039637260863e+01 -5.5590643981244916e+01 -1.1004163117815635e+02 0 0 0
3021 87 1 0.0000000000000000e+00 -3.2747941675147736e+01 -5.0432006547073897e+01 -1.1624052247154192e+02 0 0 0
6299 180 4 0.0000000000000000e+00 -1.3775092687832992e+02 -4.8442195006505145e+01 -1.1855968715671807e+02 0 0 0
2550 73 2 0.0000000000000000e+00 -1.2042672151634815e+02 -4.2813125258123726e+01 -1.1181873288926025e+02 0 0 0
6318 181 3 0.0000000000000000e+00 -9.8079918352665288e+01 -3.8162703179161923e+01 -1.0825142357019755e+02 0 0 0
6317 181 4 0.0000000000000000e+00 -1.0740966166119986e+02 -3.5592510493473249e+01 -1.0770425424434015e+02 0 0 0
6319 181 4 0.0000000000000000e+00 -9.0268991170793512e+01 -3.5563984587248648e+01 -1.1399477481863069e+02 0 0 0
6320 181 4 0.0000000000000000e+00 -8.2392681127237481e+01 -4.3269755887456583e+01 -1.1397097172066709e+02 0 0 0
1535 44 2 0.0000000000000000e+00 -4.9994449842843963e+01 -4.3337934810838512e+01 -1.1061689993791991e+02 0 0 0
1534 44 2 0.0000000000000000e+00 -4.0888158538974224e+01 -3.9191854453663623e+01 -1.1315087597012635e+02 0 0 0
1716 50 2 0.0000000000000000e+00 -1.2539344896622360e+02 -3.0996148794585380e+01 -1.1447654788645852e+02 0 0 0
1717 50 2 0.0000000000000000e+00 -1.3326717733291065e+02 -2.4869820363997952e+01 -1.1441853276271507e+02 0 0 0
6488 186 4 0.0000000000000000e+00 -1.3083022795051758e+02 -2.9587538036877906e+01 -1.0639600328112657e+02 0 0 0
6316 181 4 0.0000000000000000e+00 -1.1378272845655846e+02 -3.1791241867398860e+01 -1.1494778114632737e+02 0 0 0
2206 64 2 0.0000000000000000e+00 -1.1480200013326362e+02 -2.1958689411063620e+01 -1.1147613195868213e+02 0 0 0