LAMMPS data file via write_data, version 5 Jun 2019, timestep = 400000000

7000 atoms
4 atom types
7285 bonds
3 bond types
6600 angles
2 angle types

-5.0000000000000000e+02 5.0000000000000000e+02 xlo xhi
-5.0000000000000000e+02 5.0000000000000000e+02 ylo yhi
-5.0000000000000000e+02 5.0000000000000000e+02 zlo zhi

Masses

1 1000
2 1000
3 1000
4 1000

Pair Coeffs # lj/cut

1 0.178 10
2 0.178 10
3 0.178 10
4 0.178 10

Angle Coeffs # cosine

1 2
2 2

Atoms # full

2240 64 2 0.0000000000000000e+00 -2.9034636803360875e+01 1.1408021230932496e+01 -1.9239513713298865e+02 0 0 0
6510 186 4 0.0000000000000000e+00 -2.8590210917251589e+01 -5.6611806315626325e+01 -1.8296460903667412e+02 0 0 0
6509 186 4 0.0000000000000000e+00 -1.9929477580250971e+01 -5.8643959341006493e+01 -1.7870350365324356e+02 0 0 0
2235 64 2 0.0000000000000000e+00 -3.0487456028294879e+01 -2.4903538981465797e+01 -1.7926197292622822e+02 0 0 0
2234 64 2 0.0000000000000000e+00 -2.1451458252318012e+01 -2.8694170358087579e+01 -1.7921323563227193e+02 0 0 0
2233 64 2 0.0000000000000000e+00 -2.0081168952155835e+01 -1.8329684969950652e+01 -1.7888725578808035e+02 0 0 0
2236 64 2 0.0000000000000000e+00 -3.0368809872765553e+01 -1.6000620329073342e+01 -1.8298124879242664e+02 0 0 0
2237 64 1 0.0000000000000000e+00 -3.0258010545218976e+01 -5.8679719965565811e+00 -1.8174359706787578e+02 0 0 0
2232 64 2 0.0000000000000000e+00 -1.5503817938726209e+01 -9.2131871976303881e+00 -1.7809221861193396e+02 0 0 0
5914 169 4 0.0000000000000000e+00 -5.5930452921616215e+01 2.4661506040546897e+00 -1.7572654194868741e+02 0 0 0
2238 64 2 0.0000000000000000e+00 -3.4295503464752088e+01 3.1107556851838307e+00 -1.8243004762145333e+02 0 0 0
2239 64 2 0.0000000000000000e+00 -3.5228494003494227e+01 1.2769981165410572e+01 -1.8478405561424123e+02 0 0 0
4438 127 4 0.0000000000000000e+00 -2.5493216194392915e+01 1.4614383857362297e+01 -1.7697101810551038e+02 0 0 0
4439 127 4 0.0000000000000000e+00 -1.6291100141560129e+01 1.6280282051803415e+01 -1.8096565715269423e+02 0 0 0
6508 186 4 0.0000000000000000e+00 -1.2599718252623209e+01 -6.4016247493075724e+01 -1.7469677140484060e+02 0 0 0
2223 64 1 0.0000000000000000e+00 -1.7516280816588889e+01 -6.1467747944387988e+01 -1.6342898284871626e+02 0 0 0
2224 64 2 0.0000000000000000e+00 -1.4924001752008516e+01 -5.3150761669621026e+01 -1.6826313889972033e+02 0 0 0
4746 136 4 0.0000000000000000e+00 -5.4976317108310816e+01 -2.0704138129274352e+01 -1.6728463065108835e+02 0 0 0
4745 136 4 0.0000000000000000e+00 -4.5926346053214786e+01 -1.8732866316000528e+01 -1.7189783194441347e+02 0 0 0
6335 181 4 0.0000000000000000e+00 -3.7568160983055030e+01 -2.7167109654865580e+01 -1.6506060024357444e+02 0 0 0
5915 169 4 0.0000000000000000e+00 -5.2324172379371170e+01 -6.4015433576086567e+00 -1.7266643008717904e+02 0 0 0
4744 136 4 0.0000000000000000e+00 -3.6815672645451706e+01 -1.6828359837241855e+01 -1.7529505658311663e+02 0 0 0
4743 136 3 0.0000000000000000e+00 -2.9539963577043924e+01 -1.1568975520942919e+01 -1.7201805786106661e+02 0 0 0
4742 136 4 0.0000000000000000e+00 -2.1614111066034063e+01 -6.3372569105809546e+00 -1.6969594420047730e+02 0 0 0
4741 136 4 0.0000000000000000e+00 -1.1760462743011345e+01 -4.8420691408214056e+00 -1.6806354652519190e+02 0 0 0
5913 169 4 0.0000000000000000e+00 -6.2310621813923682e+01 9.9435198228539345e+00 -1.7430182885517107e+02 0 0 0
5912 169 3 0.0000000000000000e+00 -6.1548369242414957e+01 1.9732157043292446e+01 -1.7263925985045597e+02 0 0 0
2220 64 2 0.0000000000000000e+00 -3.0997604886190409e+01 -8.0134444901234374e+01 -1.5031383038599685e+02 0 0 0
2221 64 2 0.0000000000000000e+00 -2.4439101185751319e+01 -7.6460729670945895e+01 -1.5701215728390201e+02 0 0 0
1376 40 1 0.0000000000000000e+00 -4.3038382552358001e+01 -5.9639560821157950e+01 -1.5001493988520261e+02 0 0 0
1377 40 2 0.0000000000000000e+00 -3.2850786024484371e+01 -5.8781216856958729e+01 -1.5319431993296848e+02 0 0 0
2222 64 2 0.0000000000000000e+00 -1.6225310115684017e+01 -7.0263041669574292e+01 -1.5820768268394070e+02 0 0 0
1378 40 2 0.0000000000000000e+00 -2.6531547768667409e+01 -5.1295297036380319e+01 -1.5084028651319855e+02 0 0 0
6333 181 4 0.0000000000000000e+00 -3.4173676944183605e+01 -4.3497904292071695e+01 -1.5481650668395841e+02 0 0 0
1630 47 2 0.0000000000000000e+00 -2.5030281589332528e+01 -3.8402209101229204e+01 -1.5082283466182759e+02 0 0 0
6334 181 4 0.0000000000000000e+00 -3.6291588852337625e+01 -3.4837599915753422e+01 -1.5912900972924174e+02 0 0 0
1631 47 2 0.0000000000000000e+00 -1.5258938140337163e+01 -3.8675923162868102e+01 -1.5273078269251778e+02 0 0 0
4747 136 4 0.0000000000000000e+00 -6.0139561110193270e+01 -1.7709753305690352e+01 -1.5925824002225380e+02 0 0 0
4748 136 4 0.0000000000000000e+00 -5.5526890033536873e+01 -1.5302571404413976e+01 -1.5070613520852015e+02 0 0 0
5539 159 4 0.0000000000000000e+00 -4.7930691934623859e+01 -8.9075528621223725e+00 -1.5223484122831789e+02 0 0 0
1624 47 2 0.0000000000000000e+00 -1.1764793241220040e+01 -4.8111859957726626e+00 -1.4868980168354616e+02 0 0 0
5538 159 4 0.0000000000000000e+00 -5.4430098173706824e+01 -2.0254744990384390e+00 -1.5423436475985125e+02 0 0 0
6309 181 4 0.0000000000000000e+00 -9.5736988646059970e+01 2.1873676482459473e+01 -1.5626978006227748e+02 0 0 0
6310 181 4 0.0000000000000000e+00 -8.7730515075146855e+01 1.7398896211206655e+01 -1.5195635488465982e+02 0 0 0
2073 60 2 0.0000000000000000e+00 -7.1390318703150228e+01 2.1715211537108523e+01 -1.5130354542315996e+02 0 0 0
2072 60 2 0.0000000000000000e+00 -6.2370577167290072e+01 1.7354135304817969e+01 -1.5158181898438539e+02 0 0 0
2071 60 2 0.0000000000000000e+00 -5.3385723942932572e+01 1.9395623062607562e+01 -1.5463686037214254e+02 0 0 0
3016 87 2 0.0000000000000000e+00 -2.0142119362555221e+01 2.0100547714426007e+01 -1.5330346008507959e+02 0 0 0
1373 40 2 0.0000000000000000e+00 -5.8471107056104863e+01 -7.5070312280553225e+01 -1.3558131273716143e+02 0 0 0
2219 64 2 0.0000000000000000e+00 -3.5350042346487832e+01 -8.0010479568203678e+01 -1.4086471895202681e+02 0 0 0
6503 186 4 0.0000000000000000e+00 -1.9117420928909933e+01 -7.3138748921373860e+01 -1.3783476156164218e+02 0 0 0
1374 40 2 0.0000000000000000e+00 -5.5012729879265287e+01 -6.5782087619263464e+01 -1.3690717600344234e+02 0 0 0
1375 40 2 0.0000000000000000e+00 -5.0163378059316955e+01 -6.3895274097815452e+01 -1.4531397264562798e+02 0 0 0
6502 186 4 0.0000000000000000e+00 -2.8007052063949100e+01 -7.0366785088011440e+01 -1.3540862457666677e+02 0 0 0
6332 181 3 0.0000000000000000e+00 -3.8239251898587469e+01 -4.9164193009002261e+01 -1.4758836895210175e+02 0 0 0
6331 181 4 0.0000000000000000e+00 -3.3183390210631174e+01 -5.6112094346787259e+01 -1.4195570995071029e+02 0 0 0
1379 40 2 0.0000000000000000e+00 -2.1667850260675500e+01 -5.1294033853262846e+01 -1.4243797003851057e+02 0 0 0
1380 40 2 0.0000000000000000e+00 -1.3526103336189795e+01 -4.9705240614075386e+01 -1.3731681679460527e+02 0 0 0
1629 47 2 0.0000000000000000e+00 -3.0583088450653541e+01 -3.1452613731019653e+01 -1.4672033621743753e+02 0 0 0
5431 156 4 0.0000000000000000e+00 -1.7280344559216804e+01 -3.5119613502014680e+01 -1.3573504938642782e+02 0 0 0
5541 159 3 0.0000000000000000e+00 -4.3385336410695281e+01 -2.0637245900295788e+01 -1.3692293266464389e+02 0 0 0
1628 47 1 0.0000000000000000e+00 -3.3895525640507266e+01 -2.4906813888789106e+01 -1.3957435041188108e+02 0 0 0
2082 60 2 0.0000000000000000e+00 -7.4535316177447768e+01 -3.7242620035998493e+00 -1.3602162419101455e+02 0 0 0
4750 136 3 0.0000000000000000e+00 -6.6598358807266337e+01 -1.2187839426039158e+01 -1.3498552860184532e+02 0 0 0
4749 136 4 0.0000000000000000e+00 -5.9490167386342229e+01 -1.3335994580910851e+01 -1.4108866410860804e+02 0 0 0
2084 60 2 0.0000000000000000e+00 -5.6685449090150733e+01 -4.0776891924016558e+00 -1.4219197238483804e+02 0 0 0
2085 60 2 0.0000000000000000e+00 -4.9460830103859706e+01 -8.8279737617553469e+00 -1.3720149603876095e+02 0 0 0
5540 159 4 0.0000000000000000e+00 -4.3967535936130552e+01 -1.3861914599903505e+01 -1.4369558782001329e+02 0 0 0
1627 47 2 0.0000000000000000e+00 -3.4119232291323719e+01 -1.5065077922297199e+01 -1.3910988858510859e+02 0 0 0
1626 47 2 0.0000000000000000e+00 -2.4408019118141315e+01 -1.5823827754563080e+01 -1.3890023046181489e+02 0 0 0
1625 47 2 0.0000000000000000e+00 -1.7166655043247953e+01 -1.1936910088887156e+01 -1.4455655473245781e+02 0 0 0
2076 60 1 0.0000000000000000e+00 -9.0411264922169067e+01 1.0016353098528741e+01 -1.3619562429922922e+02 0 0 0
6311 181 3 0.0000000000000000e+00 -8.5339779733865441e+01 9.9003349341945377e+00 -1.4638260373498906e+02 0 0 0
2083 60 1 0.0000000000000000e+00 -6.6221944911997738e+01 -3.2489901040483020e+00 -1.4156832608618907e+02 0 0 0
6312 181 4 0.0000000000000000e+00 -7.8120583731506301e+01 5.1745749318833711e+00 -1.4131863012742886e+02 0 0 0
6313 181 4 0.0000000000000000e+00 -6.9420582856992667e+01 9.7457460169531984e+00 -1.3864201812818789e+02 0 0 0
5537 159 4 0.0000000000000000e+00 -5.4609571116758175e+01 4.4758777167239456e+00 -1.4660599861132962e+02 0 0 0
6314 181 4 0.0000000000000000e+00 -6.0473386186519228e+01 7.1162665677101309e+00 -1.3550491578044267e+02 0 0 0
3018 87 2 0.0000000000000000e+00 -1.3623455726534999e+01 3.5328654614711925e+00 -1.4398818425958427e+02 0 0 0
3019 87 2 0.0000000000000000e+00 -1.7753816761941646e+01 -2.9463537573218899e+00 -1.3704999608575693e+02 0 0 0
2074 60 2 0.0000000000000000e+00 -8.0386163572876697e+01 2.2494241328982323e+01 -1.4723630493336543e+02 0 0 0
2075 60 2 0.0000000000000000e+00 -8.3631249409429614e+01 1.7516586435592735e+01 -1.3866757020664329e+02 0 0 0
1799 52 2 0.0000000000000000e+00 -7.3914054422507192e+01 2.1487135084806955e+01 -1.3851090079785757e+02 0 0 0
5536 159 4 0.0000000000000000e+00 -5.3050620940590818e+01 1.2691357366354177e+01 -1.4141860471648749e+02 0 0 0
5535 159 4 0.0000000000000000e+00 -4.8953097633065632e+01 2.1141957552135910e+01 -1.4324448827919286e+02 0 0 0
3017 87 2 0.0000000000000000e+00 -1.8262381183306140e+01 1.2604582300192019e+01 -1.4563965209160770e+02 0 0 0
4200 120 4 0.0000000000000000e+00 -3.5297836129191843e+01 -1.0244568053640759e+02 -1.2423486847514637e+02 0 0 0
1371 40 2 0.0000000000000000e+00 -5.4234290664372722e+01 -8.5639048848777804e+01 -1.2544866579164729e+02 0 0 0
1372 40 2 0.0000000000000000e+00 -6.0339317969508819e+01 -8.4811291991160715e+01 -1.3345883785011469e+02 0 0 0
1370 40 2 0.0000000000000000e+00 -4.4399003538424211e+01 -8.4813746360416886e+01 -1.2547201093181877e+02 0 0 0
2217 64 2 0.0000000000000000e+00 -4.0144954557116463e+01 -7.3295629824487236e+01 -1.2348371491410630e+02 0 0 0
2218 64 2 0.0000000000000000e+00 -3.7552965457316645e+01 -7.9049422182073926e+01 -1.3097040987019287e+02 0 0 0
6497 186 4 0.0000000000000000e+00 -7.0325285136279874e+01 -6.0521194408637939e+01 -1.2465349663431324e+02 0 0 0
6498 186 4 0.0000000000000000e+00 -6.3629811289862928e+01 -6.7956569187224886e+01 -1.2270883337302615e+02 0 0 0
6499 186 4 0.0000000000000000e+00 -5.3552075196622951e+01 -6.6522825167568826e+01 -1.2381771272077746e+02 0 0 0
6500 186 3 0.0000000000000000e+00 -4.5498155425753012e+01 -6.3665094570038391e+01 -1.2894544112439596e+02 0 0 0
6501 186 4 0.0000000000000000e+00 -3.7337515416128689e+01 -6.8186708135296271e+01 -1.3237386458458397e+02 0 0 0
6330 181 4 0.0000000000000000e+00 -2.7243060543265099e+01 -5.4102749434233438e+01 -1.3425217696290309e+02 0 0 0
6329 181 4 0.0000000000000000e+00 -1.9595677180033064e+01 -5.2696345057350626e+01 -1.2686693820392684e+02 0 0 0
6300 180 4 0.0000000000000000e+00 -9.4777845376075106e+01 -3.1430012966822215e+01 -1.3173478852167608e+02 0 0 0
2521 73 2 0.0000000000000000e+00 -6.9255127022272603e+01 -4.0297983580670746e+01 -1.2334927711997263e+02 0 0 0
2091 60 2 0.0000000000000000e+00 -4.5581115519700326e+01 -3.1144795490563826e+01 -1.2959546619852833e+02 0 0 0
2090 60 1 0.0000000000000000e+00 -3.6861953230150696e+01 -3.5699229241208528e+01 -1.2842804627127262e+02 0 0 0
5429 156 3 0.0000000000000000e+00 -2.9909040080239006e+01 -4.3229658453931208e+01 -1.2396839424703005e+02 0 0 0
5430 156 4 0.0000000000000000e+00 -2.3379492995220730e+01 -4.1562305682011747e+01 -1.3102263723930125e+02 0 0 0
6299 180 4 0.0000000000000000e+00 -9.3825381546824758e+01 -3.0919808679425842e+01 -1.2129570779741319e+02 0 0 0
2093 60 2 0.0000000000000000e+00 -5.6307063790158153e+01 -1.8251412755002175e+01 -1.2935968945204382e+02 0 0 0
2092 60 2 0.0000000000000000e+00 -5.5421264185597323e+01 -2.8366175550374717e+01 -1.3033878676432977e+02 0 0 0
5542 159 4 0.0000000000000000e+00 -4.0597467283600153e+01 -2.3249673914980470e+01 -1.2763364967893123e+02 0 0 0
2089 60 2 0.0000000000000000e+00 -2.9254285923396861e+01 -3.0120947885866261e+01 -1.2752544279180165e+02 0 0 0
2088 60 2 0.0000000000000000e+00 -2.7803672317293280e+01 -2.0385771648116702e+01 -1.2608528932818372e+02 0 0 0
2079 60 2 0.0000000000000000e+00 -1.0045964133286175e+02 -1.3827016673707853e+01 -1.3008910377172279e+02 0 0 0
2078 60 2 0.0000000000000000e+00 -9.9086992982613125e+01 -4.1457308172953287e+00 -1.2895802243667330e+02 0 0 0
2080 60 2 0.0000000000000000e+00 -9.1664212132477886e+01 -1.2637168097729200e+01 -1.3447740203090197e+02 0 0 0
2081 60 2 0.0000000000000000e+00 -8.1505327241530722e+01 -1.1553102271670946e+01 -1.3424176524607714e+02 0 0 0
4751 136 4 0.0000000000000000e+00 -7.3591052094374149e+01 -1.1118317582961264e+01 -1.2785018605537209e+02 0 0 0
2094 60 2 0.0000000000000000e+00 -5.5838810037855261e+01 -8.7691612695502688e+00 -1.2754148044771580e+02 0 0 0
2086 60 2 0.0000000000000000e+00 -4.3467439847971477e+01 -9.0630275765570758e+00 -1.2919835354593852e+02 0 0 0
2087 60 2 0.0000000000000000e+00 -3.5322884147724665e+01 -1.4446875613488956e+01 -1.2851049928063310e+02 0 0 0
3020 87 2 0.0000000000000000e+00 -1.0911688602732482e+01 -9.3005196170232445e+00 -1.3444509168708711e+02 0 0 0
2077 60 2 0.0000000000000000e+00 -9.7873024882801474e+01 5.6532583127943266e+00 -1.3049274830789673e+02 0 0 0
6315 181 4 0.0000000000000000e+00 -5.0987408372977626e+01 4.3148921107973219e+00 -1.3344769280858554e+02 0 0 0
6316 181 4 0.0000000000000000e+00 -4.1076096328362027e+01 2.1573097163924979e-01 -1.3176680306939522e+02 0 0 0
2096 60 2 0.0000000000000000e+00 -4.8946176459536147e+01 7.6396375266375092e+00 -1.2318085840036346e+02 0 0 0
6317 181 4 0.0000000000000000e+00 -3.1211501686068786e+01 1.0617791794126588e+00 -1.2983242996151213e+02 0 0 0
6318 181 3 0.0000000000000000e+00 -2.2865768135693191e+01 5.0907526367164957e+00 -1.2599689830522934e+02 0 0 0
2209 64 1 0.0000000000000000e+00 -1.5764214908132073e+01 -3.3758974968534443e+00 -1.2494663402310893e+02 0 0 0
2208 64 2 0.0000000000000000e+00 -1.0577135891715328e+01 5.1696341672339559e+00 -1.2683090027652901e+02 0 0 0
1795 52 2 0.0000000000000000e+00 -1.0852122827429191e+02 2.3941242691446028e+01 -1.3463284295194185e+02 0 0 0
1796 52 1 0.0000000000000000e+00 -9.9254797684671416e+01 2.0979853825092949e+01 -1.3172360484890859e+02 0 0 0
1797 52 2 0.0000000000000000e+00 -9.0530640004642521e+01 2.2115595735765002e+01 -1.2837810936345170e+02 0 0 0
1798 52 2 0.0000000000000000e+00 -8.0294740387666550e+01 2.2292302982054615e+01 -1.3044810548123152e+02 0 0 0
2100 60 2 0.0000000000000000e+00 -6.2938107679140721e+01 2.0135684350507397e+01 -1.3190219303468709e+02 0 0 0
2099 60 2 0.0000000000000000e+00 -5.7375792138608759e+01 2.2196821437154505e+01 -1.2335200194893005e+02 0 0 0
6319 181 4 0.0000000000000000e+00 -1.7050613886437933e+01 1.2560652549858778e+01 -1.2161947968677164e+02 0 0 0
4199 120 4 0.0000000000000000e+00 -4.4287155697981859e+01 -9.9269999939861819e+01 -1.2112628489132740e+02 0 0 0
4198 120 4 0.0000000000000000e+00 -5.0634690069817637e+01 -9.5212525955506067e+01 -1.1419693028915940e+02 0 0 0
1369 40 1 0.0000000000000000e+00 -3.7909956496425266e+01 -8.9782911035175658e+01 -1.2020012630760932e+02 0 0 0
1368 40 2 0.0000000000000000e+00 -3.4581655062199914e+01 -9.3584993653293139e+01 -1.1094908190250432e+02 0 0 0
4197 120 3 0.0000000000000000e+00 -4.6594534021782486e+01 -8.6071457552347667e+01 -1.1420937665643031e+02 0 0 0
4196 120 4 0.0000000000000000e+00 -4.3729711223809836e+01 -7.6676264192800659e+01 -1.1150138159139610e+02 0 0 0
6496 186 4 0.0000000000000000e+00 -7.9925935969224412e+01 -5.9166494378075939e+01 -1.2103788277818248e+02 0 0 0
2540 73 2 0.0000000000000000e+00 -6.3856274690025181e+01 -7.0144623291294693e+01 -1.0889945975761239e+02 0 0 0
2541 73 2 0.0000000000000000e+00 -6.2984316437431033e+01 -6.0219186560639542e+01 -1.1199201987949041e+02 0 0 0
2216 64 1 0.0000000000000000e+00 -4.0275849186352048e+01 -6.4127092584562547e+01 -1.1903824480496904e+02 0 0 0
4195 120 4 0.0000000000000000e+00 -3.5906366926803919e+01 -7.1495267368869335e+01 -1.0930388870355776e+02 0 0 0
6494 186 4 0.0000000000000000e+00 -9.3589746563065916e+01 -4.7323743760409592e+01 -1.1306187407459647e+02 0 0 0
6495 186 4 0.0000000000000000e+00 -8.7628887245373519e+01 -5.3429842930534967e+01 -1.1760785755118542e+02 0 0 0
2523 73 2 0.0000000000000000e+00 -7.9866961125377671e+01 -4.8056284304668218e+01 -1.0988045369735059e+02 0 0 0
2522 73 2 0.0000000000000000e+00 -7.1725009274985510e+01 -4.6117167618042295e+01 -1.1475852595222030e+02 0 0 0
2215 64 2 0.0000000000000000e+00 -3.5342775294461234e+01 -5.6741196989517867e+01 -1.1409233699708722e+02 0 0 0
2214 64 2 0.0000000000000000e+00 -3.2072593402396834e+01 -4.7716675600399910e+01 -1.1481363785231991e+02 0 0 0
5426 156 4 0.0000000000000000e+00 -5.5541454700416722e+01 -3.1835141173319030e+01 -1.1990136087082819e+02 0 0 0
5428 156 4 0.0000000000000000e+00 -3.8619306353508385e+01 -4.2303057263528629e+01 -1.1935108934700489e+02 0 0 0
5427 156 4 0.0000000000000000e+00 -4.7430722465488131e+01 -3.7516358662522997e+01 -1.2026067470531490e+02 0 0 0
2213 64 2 0.0000000000000000e+00 -2.7783873959148700e+01 -3.8744738826849904e+01 -1.1445187965762921e+02 0 0 0
6328 181 4 0.0000000000000000e+00 -1.8583349458692847e+01 -4.4709865752792290e+01 -1.2114948559937591e+02 0 0 0
6326 181 4 0.0000000000000000e+00 -1.7237809893597628e+01 -3.3210537835522722e+01 -1.1558977281217759e+02 0 0 0
6298 180 4 0.0000000000000000e+00 -9.6528539682213335e+01 -2.8014983610724862e+01 -1.1257938944604460e+02 0 0 0
2550 73 2 0.0000000000000000e+00 -8.6729241010600646e+01 -1.9248039815332515e+01 -1.1320525419476805e+02 0 0 0
2549 73 2 0.0000000000000000e+00 -8.2574832018086482e+01 -2.7347132231681112e+01 -1.0896562235915158e+02 0 0 0
5543 159 4 0.0000000000000000e+00 -3.7516816119265933e+01 -2.9720536251461564e+01 -1.1967019834271073e+02 0 0 0
5544 159 4 0.0000000000000000e+00 -3.6709340358681487e+01 -2.6041721814528810e+01 -1.0999970172134003e+02 0 0 0
2212 64 2 0.0000000000000000e+00 -2.6451955035145925e+01 -2.9588534103911488e+01 -1.1767671885104517e+02 0 0 0
2211 64 2 0.0000000000000000e+00 -2.0707572169883875e+01 -2.1630943282982464e+01 -1.1885747470493817e+02 0 0 0
6325 181 3 0.0000000000000000e+00 -1.5860901935093219e+01 -2.4981204579308706e+01 -1.0946087661084368e+02 0 0 0
1716 50 2 0.0000000000000000e+00 -1.1647703136498643e+02 -4.0153213685904250e+00 -1.1730372015120005e+02 0 0 0
2552 73 1 0.0000000000000000e+00 -9.9451968714178065e+01 -1.1627510695497145e+01 -1.0972950663938376e+02 0 0 0
4753 136 4 0.0000000000000000e+00 -7.8762412127387321e+01 -1.0747247047562738e+01 -1.0885601120113080e+02 0 0 0
2551 73 2 0.0000000000000000e+00 -9.0702287323988571e+01 -1.0450795866572154e+01 -1.1464942005340261e+02 0 0 0
4752 136 4 0.0000000000000000e+00 -7.4446464353406640e+01 -1.0700369110908328e+01 -1.1768489527692221e+02 0 0 0
281 9 2 0.0000000000000000e+00 -2.8942894356792689e+01 -8.7555841755968835e+00 -1.0986077083010342e+02 0 0 0
2210 64 2 0.0000000000000000e+00 -2.0021863107029450e+01 -1.1877237069368489e+01 -1.2075547871742836e+02 0 0 0
6324 181 4 0.0000000000000000e+00 -2.0840007999611739e+01 -1.6492486824446914e+01 -1.0975168054592473e+02 0 0 0
6323 181 4 0.0000000000000000e+00 -1.6845475535773691e+01 -7.3767871830485294e+00 -1.0791235200297693e+02 0 0 0
1718 50 2 0.0000000000000000e+00 -1.3251105994316165e+02 3.0406478814301723e+00 -1.0786963391345246e+02 0 0 0
1717 50 2 0.0000000000000000e+00 -1.2450306378451383e+02 -5.8559791183810439e-01 -1.1193373346641135e+02 0 0 0
2553 73 2 0.0000000000000000e+00 -9.8403191989080696e+01 -1.6192815647687171e+00 -1.1301670733849676e+02 0 0 0
2554 73 2 0.0000000000000000e+00 -9.4671258208302461e+01 7.0666878630470773e+00 -1.1496943369063301e+02 0 0 0
2095 60 2 0.0000000000000000e+00 -5.2976827033498083e+01 -1.4130362555641458e+00 -1.2125982156045399e+02 0 0 0
5901 169 4 0.0000000000000000e+00 -5.5059730696759736e+01 9.0468001057574732e+00 -1.0945965730786560e+02 0 0 0
5902 169 4 0.0000000000000000e+00 -6.3065248326531304e+01 9.4084742527190279e+00 -1.1538663570834572e+02 0 0 0
6322 181 4 0.0000000000000000e+00 -1.2232841817112160e+01 1.1949407077852989e+00 -1.0807602840529520e+02 0 0 0
2555 73 2 0.0000000000000000e+00 -9.5009196348867945e+01 1.6043676246042217e+01 -1.1991803091107583e+02 0 0 0
3314 95 2 0.0000000000000000e+00 -9.7941104005062130e+01 1.3711482768024622e+01 -1.0918476933307097e+02 0 0 0
3315 95 1 0.0000000000000000e+00 -8.9335202592909781e+01 1.9588430808362045e+01 -1.0786912245224661e+02 0 0 0
5903 169 4 0.0000000000000000e+00 -6.6758375939612748e+01 1.8071878822507148e+01 -1.1770903387368568e+02 0 0 0
2097 60 1 0.0000000000000000e+00 -5.3855663556164593e+01 1.5051308761957680e+01 -1.1866835893140302e+02 0 0 0
6514 187 3 0.0000000000000000e+00 -4.7114475550626487e+01 1.5804666109501101e+01 -1.0976592066707269e+02 0 0 0
6515 187 4 0.0000000000000000e+00 -4.3263424345613153e+01 1.8819254241767922e+01 -1.1842530002679270e+02 0 0 0
6516 187 4 0.0000000000000000e+00 -3.3537528707276692e+01 2.1145530125369184e+01 -1.1451885458781247e+02 0 0 0
5775 165 4 0.0000000000000000e+00 -2.4528640535522221e+01 1.5137786873471171e+01 -1.0889852878949971e+02 0 0 0
2814 81 2 0.0000000000000000e+00 -1.3554668968441113e+01 -1.1764293690817338e+02 -1.0500979197917671e+02 0 0 0
2812 81 2 0.0000000000000000e+00 -1.5905623044973133e+01 -1.2362399085458834e+02 -9.5211849800511985e+01 0 0 0
2813 81 2 0.0000000000000000e+00 -1.3747099629473901e+01 -1.2758527602044197e+02 -1.0387641126203708e+02 0 0 0
2815 81 2 0.0000000000000000e+00 -1.4656017661652006e+01 -1.0923010135288374e+02 -1.0037160741689357e+02 0 0 0
6247 179 4 0.0000000000000000e+00 -6.5119190865247717e+01 -9.1297078825307167e+01 -1.0747200926857016e+02 0 0 0
6246 179 4 0.0000000000000000e+00 -5.5974061501129079e+01 -9.4099761428853071e+01 -1.0306521726981657e+02 0 0 0
1366 40 2 0.0000000000000000e+00 -4.3495928177385842e+01 -8.7315068353734048e+01 -9.7325304361159581e+01 0 0 0
6245 179 4 0.0000000000000000e+00 -5.0135710641265163e+01 -9.6922155202716638e+01 -9.5257708580214512e+01 0 0 0
1367 40 2 0.0000000000000000e+00 -3.5571803737946205e+01 -9.0127920699096109e+01 -1.0208037679588348e+02 0 0 0
4831 139 4 0.0000000000000000e+00 -1.5437083060450339e+01 -8.7021205082848667e+01 -9.8280490849843716e+01 0 0 0
6249 179 4 0.0000000000000000e+00 -8.0396428718013027e+01 -7.8896158430174069e+01 -1.0295208749308611e+02 0 0 0
6248 179 3 0.0000000000000000e+00 -7.2070547726909496e+01 -8.4644983430500346e+01 -1.0474986796416185e+02 0 0 0
2538 73 1 0.0000000000000000e+00 -6.8643291184825443e+01 -8.2496423534798694e+01 -9.4389616283540619e+01 0 0 0
2539 73 2 0.0000000000000000e+00 -6.4665480351542030e+01 -7.6766616999073946e+01 -1.0191410195656998e+02 0 0 0
771 23 2 0.0000000000000000e+00 -2.7449342940450144e+01 -8.1389680684944551e+01 -9.9253438286503510e+01 0 0 0
6251 179 4 0.0000000000000000e+00 -9.2284734861793680e+01 -6.3663048205035203e+01 -9.6130489070060875e+01 0 0 0
6250 179 4 0.0000000000000000e+00 -8.5962691194584849e+01 -7.0835131115643605e+01 -9.9762724662023700e+01 0 0 0
4194 120 4 0.0000000000000000e+00 -3.3083366031533679e+01 -6.4813913382945032e+01 -1.0242972189164422e+02 0 0 0
4193 120 4 0.0000000000000000e+00 -2.4707922693326100e+01 -5.9691419120186040e+01 -9.8355132170548217e+01 0 0 0
6493 186 3 0.0000000000000000e+00 -9.9000221393574094e+01 -4.5972856441709304e+01 -1.0410302181705670e+02 0 0 0
2525 73 2 0.0000000000000000e+00 -9.1789221181519210e+01 -4.9343467656387013e+01 -9.7252672073982268e+01 0 0 0
2542 73 2 0.0000000000000000e+00 -5.8287352428723345e+01 -5.6620090412685670e+01 -1.0417482663538588e+02 0 0 0
2543 73 2 0.0000000000000000e+00 -5.8773667055254165e+01 -5.3944241540638401e+01 -9.4762996679866305e+01 0 0 0
1387 40 2 0.0000000000000000e+00 -3.7703479414982979e+01 -5.2916547975123166e+01 -1.0201578350950847e+02 0 0 0
1386 40 2 0.0000000000000000e+00 -3.0858790078185400e+01 -4.7700345681610074e+01 -9.6276566451224809e+01 0 0 0
1385 40 2 0.0000000000000000e+00 -2.7268520744229907e+01 -4.5141339366495352e+01 -1.0523826764622999e+02 0 0 0
1384 40 2 0.0000000000000000e+00 -1.8401274399302316e+01 -4.8917596414311866e+01 -1.0733038408664548e+02 0 0 0
6492 186 4 0.0000000000000000e+00 -1.0585624154684943e+02 -4.1957112069194167e+01 -9.9103457374037603e+01 0 0 0
2524 73 1 0.0000000000000000e+00 -8.8019749743494188e+01 -4.4381899160148457e+01 -1.0535309936593434e+02 0 0 0
2548 73 2 0.0000000000000000e+00 -8.9417063380423286e+01 -3.3814000868312455e+01 -1.0490588574549577e+02 0 0 0
2547 73 2 0.0000000000000000e+00 -9.0635003780671255e+01 -3.4927846206836584e+01 -9.5012308045251629e+01 0 0 0
1388 40 2 0.0000000000000000e+00 -3.9707156219338124e+01 -4.3139393205549730e+01 -9.9504168204141635e+01 0 0 0
1389 40 2 0.0000000000000000e+00 -4.3022297454094222e+01 -3.3940235136942583e+01 -9.7896305750791328e+01 0 0 0
5547 159 4 0.0000000000000000e+00 -1.3741752607884285e+01 -3.4327480887028194e+01 -1.0460154892140665e+02 0 0 0
6297 180 3 0.0000000000000000e+00 -9.8382055682252627e+01 -2.1641202497940036e+01 -1.0466195705701544e+02 0 0 0
5545 159 4 0.0000000000000000e+00 -2.8574874028761933e+01 -2.3118083747383388e+01 -1.0467243530203579e+02 0 0 0
5546 159 4 0.0000000000000000e+00 -2.1689576626791283e+01 -2.9581298053052269e+01 -1.0179618645834866e+02 0 0 0
1537 44 1 0.0000000000000000e+00 -1.6292765701255227e+01 -1.9409792497557060e+01 -1.0018497974772217e+02 0 0 0
6296 180 4 0.0000000000000000e+00 -1.0018262735402332e+02 -1.2965152893558287e+01 -9.9657779652537144e+01 0 0 0
4754 136 4 0.0000000000000000e+00 -8.2700901158320889e+01 -1.0401198797243701e+01 -9.9950669436413094e+01 0 0 0
3731 107 4 0.0000000000000000e+00 -6.9328410030373135e+01 -6.6305705033494364e+00 -9.4253673788869961e+01 0 0 0
282 9 2 0.0000000000000000e+00 -2.8620126891731616e+01 -1.0938888277733177e+01 -1.0013276484430460e+02 0 0 0
283 9 2 0.0000000000000000e+00 -2.0687023289932370e+01 -8.7848666559442545e+00 -9.5149978271156343e+01 0 0 0
1719 50 1 0.0000000000000000e+00 -1.3613037073455240e+02 4.8288769634393907e+00 -9.9168760367917628e+01 0 0 0
3311 95 2 0.0000000000000000e+00 -1.2451440475913134e+02 8.0384567877290998e+00 -1.0370997735025041e+02 0 0 0
6294 180 4 0.0000000000000000e+00 -1.1092020067875627e+02 3.0057703129816233e+00 -9.9231921006330381e+01 0 0 0
6295 180 4 0.0000000000000000e+00 -1.0327490390761859e+02 -3.1300570403270171e+00 -9.9641696474098822e+01 0 0 0
3729 107 4 0.0000000000000000e+00 -7.8649113334270169e+01 4.4270329370712158e+00 -1.0671221209893361e+02 0 0 0
3730 107 4 0.0000000000000000e+00 -7.5088036619112145e+01 -3.1067494478542592e+00 -1.0129906818253421e+02 0 0 0
5900 169 4 0.0000000000000000e+00 -5.0618405238824472e+01 3.3869132725216899e+00 -1.0234003675631845e+02 0 0 0
5899 169 4 0.0000000000000000e+00 -4.5384723899245103e+01 -1.9310564832462531e+00 -9.4815833979550362e+01 0 0 0
2906 84 2 0.0000000000000000e+00 -3.4808953235754714e+01 2.1926906499394265e+00 -1.0270646825813991e+02 0 0 0
3395 97 2 0.0000000000000000e+00 -2.2974680752240889e+01 3.1663943912219388e+00 -9.9988096297033422e+01 0 0 0
3310 95 2 0.0000000000000000e+00 -1.3106570355886944e+02 1.4130361181983604e+01 -9.8615155265810031e+01 0 0 0
3312 95 2 0.0000000000000000e+00 -1.1570461301824339e+02 1.1853901573563311e+01 -1.0701562671643455e+02 0 0 0
3313 95 2 0.0000000000000000e+00 -1.0631488378544968e+02 1.1750472692489931e+01 -1.0487855558814417e+02 0 0 0
3728 107 3 0.0000000000000000e+00 -7.9996158146488966e+01 1.4263383298253967e+01 -1.0485304688348052e+02 0 0 0
3727 107 4 0.0000000000000000e+00 -8.2314569956891290e+01 2.0513138677753446e+01 -9.7261475645722030e+01 0 0 0
6513 187 4 0.0000000000000000e+00 -5.6539770530745969e+01 1.7884973588536386e+01 -1.0557118263311769e+02 0 0 0
6512 187 4 0.0000000000000000e+00 -6.4618209467037573e+01 2.3808667137843575e+01 -1.0335625461025290e+02 0 0 0
5774 165 4 0.0000000000000000e+00 -1.4894842820097608e+01 1.3654598558783885e+01 -1.0653217609877561e+02 0 0 0
2811 81 1 0.0000000000000000e+00 -2.1799993391747375e+01 -1.1598026766260269e+02 -9.2720564721282869e+01 0 0 0
3993 115 4 0.0000000000000000e+00 -1.6007868788907764e+01 -1.2034048246414594e+02 -8.5308989763997445e+01 0 0 0
3994 115 3 0.0000000000000000e+00 -1.0679020978772828e+01 -1.1408626353040691e+02 -9.1640394903075176e+01 0 0 0
2810 81 2 0.0000000000000000e+00 -3.0545022722648472e+01 -1.1249811369815605e+02 -8.8384175946033977e+01 0 0 0
6439 184 4 0.0000000000000000e+00 -2.5862024979414397e+01 -1.0446254134621120e+02 -8.2849211291711015e+01 0 0 0
2816 81 2 0.0000000000000000e+00 -1.1411423555600928e+01 -1.0302050025875154e+02 -9.3180740321047651e+01 0 0 0
2536 73 2 0.0000000000000000e+00 -5.9754398585371199e+01 -8.9264016339973551e+01 -8.3587968666744842e+01 0 0 0
6244 179 4 0.0000000000000000e+00 -4.0846072448105517e+01 -9.6839402330876126e+01 -9.1363687656479556e+01 0 0 0
6243 179 4 0.0000000000000000e+00 -3.2793996551750951e+01 -9.3705618289426710e+01 -8.7446325877703117e+01 0 0 0
6242 179 4 0.0000000000000000e+00 -2.4066174417362291e+01 -9.3783174601841012e+01 -8.1759921263790289e+01 0 0 0
2817 81 2 0.0000000000000000e+00 -1.1296499543851384e+01 -9.4588224215812943e+01 -8.8838067541561628e+01 0 0 0
2818 81 1 0.0000000000000000e+00 -1.2563890274141464e+01 -8.8372050145989164e+01 -8.1674960180823589e+01 0 0 0