LAMMPS data file via write_data, version 5 Jun 2019, timestep = 400000000

7000 atoms
4 atom types
7287 bonds
3 bond types
6600 angles
2 angle types

-5.0000000000000000e+02 5.0000000000000000e+02 xlo xhi
-5.0000000000000000e+02 5.0000000000000000e+02 ylo yhi
-5.0000000000000000e+02 5.0000000000000000e+02 zlo zhi

Masses

1 1000
2 1000
3 1000
4 1000

Pair Coeffs # lj/cut

1 0.178 10
2 0.178 10
3 0.178 10
4 0.178 10

Angle Coeffs # cosine

1 2
2 2

Atoms # full

4737 136 4 0.0000000000000000e+00 -9.3977635432171205e+00 -1.2907393515936359e+01 -1.6053766021391434e+02 0 0 0
4736 136 3 0.0000000000000000e+00 -3.2986295392178682e+00 -2.0841475404315190e+01 -1.5921787738818134e+02 0 0 0
2164 62 2 0.0000000000000000e+00 -9.5049566161637689e+00 -1.2368384652038988e+02 -1.4886721531967208e+02 0 0 0
2165 62 2 0.0000000000000000e+00 -7.0409303320431249e+00 -1.1448102680887564e+02 -1.5099796761848640e+02 0 0 0
3638 104 4 0.0000000000000000e+00 -7.5662639339084103e+00 -1.0215718678056656e+02 -1.4607361881280886e+02 0 0 0
4445 127 4 0.0000000000000000e+00 -6.9126824203895168e+01 -5.5129823175241718e+01 -1.5305404843271330e+02 0 0 0
1637 47 2 0.0000000000000000e+00 -3.2954574968297734e+01 -5.7154936544682357e+01 -1.4884557189657536e+02 0 0 0
1638 47 2 0.0000000000000000e+00 -2.4274871609529772e+01 -6.0550130880495296e+01 -1.5086209713896076e+02 0 0 0
4444 127 4 0.0000000000000000e+00 -6.7931932617013473e+01 -4.6286408388507397e+01 -1.4874542326888806e+02 0 0 0
4443 127 4 0.0000000000000000e+00 -6.6549664860294627e+01 -3.6306963482615174e+01 -1.5133933245601975e+02 0 0 0
4442 127 3 0.0000000000000000e+00 -6.9593829661128069e+01 -2.6769984451565765e+01 -1.5068272320311195e+02 0 0 0
2230 64 1 0.0000000000000000e+00 -5.8821661948278887e+01 -2.7897521052428008e+01 -1.5351426325344295e+02 0 0 0
2229 64 2 0.0000000000000000e+00 -5.6053811187640420e+01 -3.5925099016065353e+01 -1.4883309175220475e+02 0 0 0
2231 64 2 0.0000000000000000e+00 -4.9869059835972088e+01 -2.3809999811211021e+01 -1.5563561140696223e+02 0 0 0
4441 127 4 0.0000000000000000e+00 -6.3529966808391691e+01 -1.8545552338056545e+01 -1.5106407720122201e+02 0 0 0
4440 127 4 0.0000000000000000e+00 -5.8957251377922326e+01 -1.0672551564381845e+01 -1.5540416137168327e+02 0 0 0
2232 64 2 0.0000000000000000e+00 -4.6574701290816115e+01 -1.4545313353186430e+01 -1.5549112906870374e+02 0 0 0
2233 64 2 0.0000000000000000e+00 -4.5314720422371821e+01 -9.5538808802779531e+00 -1.4753719456516339e+02 0 0 0
4741 136 4 0.0000000000000000e+00 -3.4438575902830195e+01 -1.6176415316295781e+01 -1.4865138194766277e+02 0 0 0
4740 136 4 0.0000000000000000e+00 -3.1571643328449138e+01 -1.1603761089344902e+01 -1.5658300709377968e+02 0 0 0
1623 47 2 0.0000000000000000e+00 -1.5539617796678815e+01 -1.2133003776221591e+01 -1.4701551136010565e+02 0 0 0
1622 47 2 0.0000000000000000e+00 -6.5779779888064311e+00 -1.4136876770745003e+01 -1.5100541293344241e+02 0 0 0
4865 139 4 0.0000000000000000e+00 -1.2610208404369724e+01 -1.3588428404976585e+02 -1.4362972940138653e+02 0 0 0
4864 139 4 0.0000000000000000e+00 -7.2714951054791088e+00 -1.3632263902670320e+02 -1.3409342795506052e+02 0 0 0
3640 104 4 0.0000000000000000e+00 -2.4552428584322989e+01 -1.0603954553062289e+02 -1.4030210249218786e+02 0 0 0
3639 104 4 0.0000000000000000e+00 -1.5364403143836864e+01 -1.0737632592442735e+02 -1.4247944780213979e+02 0 0 0
6510 186 4 0.0000000000000000e+00 -4.8615491585194498e+01 -8.9124899486414833e+01 -1.3280172066862087e+02 0 0 0
4726 136 4 0.0000000000000000e+00 -4.1353435601070281e+01 -7.7402319811783073e+01 -1.4066391903878278e+02 0 0 0
2627 76 2 0.0000000000000000e+00 -4.6980982726193359e+00 -8.1798578529190948e+01 -1.3686686051580872e+02 0 0 0
2628 76 2 0.0000000000000000e+00 -1.3611814717886537e+01 -7.8523687151597201e+01 -1.3369236655765158e+02 0 0 0
4727 136 4 0.0000000000000000e+00 -3.7047659753705545e+01 -6.8358275004136914e+01 -1.3842480635303707e+02 0 0 0
1639 47 2 0.0000000000000000e+00 -1.8691201385181440e+01 -6.4407546480303751e+01 -1.4354620597847466e+02 0 0 0
1636 47 2 0.0000000000000000e+00 -3.7242304810208800e+01 -5.6333651261815746e+01 -1.4028728034240243e+02 0 0 0
4728 136 4 0.0000000000000000e+00 -2.9368375852482735e+01 -6.2615312444277976e+01 -1.3960584293583494e+02 0 0 0
1640 47 2 0.0000000000000000e+00 -1.5384370900868763e+01 -5.9736880897362759e+01 -1.3535693444125516e+02 0 0 0
2227 64 2 0.0000000000000000e+00 -5.0200765192594069e+01 -4.9005339795339999e+01 -1.3816700942036721e+02 0 0 0
2228 64 2 0.0000000000000000e+00 -5.0900155364133241e+01 -4.0190712405032343e+01 -1.4183795164490263e+02 0 0 0
4731 136 4 0.0000000000000000e+00 -2.2191789055995486e+01 -4.5705141729763220e+01 -1.3228215640747658e+02 0 0 0
4732 136 4 0.0000000000000000e+00 -1.7706650129380304e+01 -4.1250975630460303e+01 -1.4013895605504641e+02 0 0 0
4733 136 4 0.0000000000000000e+00 -9.1922324631636538e+00 -3.9923015292898540e+01 -1.4399458436349258e+02 0 0 0
4544 130 4 0.0000000000000000e+00 -4.6904887717156090e+00 -2.8385358659973484e+01 -1.4124433492073339e+02 0 0 0
4744 136 4 0.0000000000000000e+00 -5.8149575353892807e+01 -1.6035093134254176e+01 -1.3478496087851863e+02 0 0 0
4743 136 3 0.0000000000000000e+00 -4.9402453071267402e+01 -1.8781180598504687e+01 -1.3656182304256774e+02 0 0 0
4742 136 4 0.0000000000000000e+00 -4.0790302732528119e+01 -1.7769208998923183e+01 -1.4071429955097875e+02 0 0 0
1624 47 2 0.0000000000000000e+00 -2.2378188766854024e+01 -1.2766614751612819e+01 -1.4019442265336997e+02 0 0 0
4545 130 4 0.0000000000000000e+00 -7.9643341498832170e+00 -1.8253948142280976e+01 -1.4081171531189455e+02 0 0 0
4546 130 4 0.0000000000000000e+00 -1.2577867158536801e+01 -1.2223264189081961e+01 -1.3350006987424828e+02 0 0 0
4863 139 4 0.0000000000000000e+00 -3.4967506201597818e+00 -1.3894192739308170e+02 -1.2528731473871174e+02 0 0 0
6509 186 4 0.0000000000000000e+00 -5.4191594351376708e+01 -8.8910856355488846e+01 -1.2361557242852183e+02 0 0 0
6508 186 4 0.0000000000000000e+00 -5.6506878552859881e+01 -8.0021144497229727e+01 -1.2026327479252808e+02 0 0 0
4200 120 4 0.0000000000000000e+00 -6.8712037207830321e+01 -7.3267288982282210e+01 -1.2031781501531431e+02 0 0 0
2224 64 2 0.0000000000000000e+00 -5.3131155137047806e+01 -6.3904438147944518e+01 -1.2101073427905260e+02 0 0 0
2631 76 2 0.0000000000000000e+00 -3.6945025697793717e+01 -7.0316334656539013e+01 -1.2549649024066720e+02 0 0 0
2630 76 2 0.0000000000000000e+00 -2.8484903474487712e+01 -6.7998422543461587e+01 -1.3008682136808596e+02 0 0 0
2629 76 1 0.0000000000000000e+00 -2.0908466006785201e+01 -7.3338605126241447e+01 -1.2796481686761250e+02 0 0 0
2226 64 2 0.0000000000000000e+00 -4.7735108411417137e+01 -5.3757764519666992e+01 -1.3032907351657971e+02 0 0 0
1635 47 1 0.0000000000000000e+00 -3.6803751944591149e+01 -5.2850022765419091e+01 -1.3083916622070046e+02 0 0 0
2225 64 2 0.0000000000000000e+00 -4.4193650993374206e+01 -6.2125545520304250e+01 -1.2541946648257880e+02 0 0 0
4729 136 3 0.0000000000000000e+00 -2.6989164700031846e+01 -5.7698816938720107e+01 -1.3130999976887799e+02 0 0 0
4730 136 4 0.0000000000000000e+00 -1.9573894822201535e+01 -5.3967107060250520e+01 -1.2698114782663123e+02 0 0 0
1641 47 2 0.0000000000000000e+00 -8.6639424822450817e+00 -5.8365038157868781e+01 -1.2800133288735728e+02 0 0 0
1642 47 1 0.0000000000000000e+00 -1.0176582039209551e+01 -5.6596910474353351e+01 -1.1837180646162030e+02 0 0 0
1366 40 2 0.0000000000000000e+00 -7.9365059738108911e+01 -4.6948604132756749e+01 -1.2084422013926502e+02 0 0 0
2240 64 2 0.0000000000000000e+00 -4.6185992645570273e+01 -3.7551176533380726e+01 -1.2198297865374943e+02 0 0 0
1634 47 2 0.0000000000000000e+00 -3.9557087886072019e+01 -4.7426695863924593e+01 -1.2257582579810745e+02 0 0 0
4542 130 4 0.0000000000000000e+00 -5.1413504351551023e+00 -4.3292346049332295e+01 -1.3145973630163124e+02 0 0 0
2239 64 2 0.0000000000000000e+00 -3.7638227137180742e+01 -3.2720117987178426e+01 -1.2539205707534175e+02 0 0 0
2238 64 2 0.0000000000000000e+00 -4.3004605262054163e+01 -2.4342192218391247e+01 -1.2662097572007104e+02 0 0 0
3023 87 2 0.0000000000000000e+00 -1.5984595751891259e+01 -2.3977054598428314e+01 -1.3046645349156091e+02 0 0 0
3024 87 2 0.0000000000000000e+00 -8.0111368965348113e+00 -2.8457374916964728e+01 -1.2690845352383045e+02 0 0 0
2080 60 2 0.0000000000000000e+00 -9.2573717990371108e+01 -1.0475142869528792e+01 -1.2234871024273019e+02 0 0 0
2079 60 2 0.0000000000000000e+00 -9.0427548275998490e+01 -1.1207271446016007e+01 -1.3168991754006126e+02 0 0 0
4746 136 4 0.0000000000000000e+00 -7.4622050627253174e+01 -1.7641738338299866e+01 -1.2423084992303089e+02 0 0 0
4745 136 4 0.0000000000000000e+00 -6.7061276510638834e+01 -1.4189854290021543e+01 -1.3025775143309741e+02 0 0 0
2237 64 1 0.0000000000000000e+00 -4.8455465748086894e+01 -1.6021688162337849e+01 -1.2543655663814502e+02 0 0 0
3022 87 2 0.0000000000000000e+00 -1.9907294852054783e+01 -2.0076846877130823e+01 -1.2196428276943730e+02 0 0 0
4198 120 4 0.0000000000000000e+00 -7.5441559392284475e+01 -8.2414405786000160e+01 -1.0456571232169655e+02 0 0 0
6507 186 3 0.0000000000000000e+00 -5.2860121479267484e+01 -7.8007477008487854e+01 -1.1100752113264602e+02 0 0 0
5437 156 4 0.0000000000000000e+00 -1.8935808406841264e+01 -8.1505853855627834e+01 -1.1470358913673250e+02 0 0 0
5438 156 4 0.0000000000000000e+00 -9.2397879069403999e+00 -7.8885267620839784e+01 -1.1397461550253500e+02 0 0 0
4199 120 4 0.0000000000000000e+00 -7.3841382198489285e+01 -7.7264484634358723e+01 -1.1259688648215167e+02 0 0 0
2223 64 1 0.0000000000000000e+00 -5.7488360837277405e+01 -6.8424429789784838e+01 -1.1372293619184319e+02 0 0 0
2632 76 2 0.0000000000000000e+00 -3.9585331011104167e+01 -7.1269954574341753e+01 -1.1614962105412516e+02 0 0 0
2633 76 2 0.0000000000000000e+00 -3.6435988423873219e+01 -6.9247251737032130e+01 -1.0671779265389118e+02 0 0 0
5436 156 3 0.0000000000000000e+00 -2.4177819039776072e+01 -7.3311665810283813e+01 -1.1719223836763096e+02 0 0 0
5435 156 4 0.0000000000000000e+00 -2.8829607249357689e+01 -6.4602385099589313e+01 -1.1730935339383797e+02 0 0 0
1368 40 2 0.0000000000000000e+00 -7.6657499838666283e+01 -6.3471792279574800e+01 -1.0912116140865298e+02 0 0 0
1367 40 2 0.0000000000000000e+00 -7.8150673474852738e+01 -5.5901996271407810e+01 -1.1580447027657591e+02 0 0 0
2222 64 2 0.0000000000000000e+00 -5.7821074257025408e+01 -6.1515552115255126e+01 -1.0649569233116992e+02 0 0 0
5433 156 4 0.0000000000000000e+00 -4.7584041301074322e+01 -5.8712265566388226e+01 -1.1314249594639344e+02 0 0 0
5432 156 4 0.0000000000000000e+00 -5.5125234680777716e+01 -5.2491519613074168e+01 -1.1123759580844458e+02 0 0 0
5434 156 4 0.0000000000000000e+00 -3.7926081208467473e+01 -6.1358378524186151e+01 -1.1500701612780999e+02 0 0 0
4845 139 4 0.0000000000000000e+00 -2.1800590643223249e+01 -6.2695893041455093e+01 -1.0974916462434523e+02 0 0 0
4844 139 4 0.0000000000000000e+00 -1.4012221913499740e+01 -5.6105174335964193e+01 -1.0869162324273029e+02 0 0 0
5431 156 4 0.0000000000000000e+00 -6.1191665548604753e+01 -4.5716255268164147e+01 -1.0624289992585678e+02 0 0 0
5430 156 4 0.0000000000000000e+00 -6.6176084391965986e+01 -3.6749941906485162e+01 -1.0569747547157681e+02 0 0 0
1632 47 2 0.0000000000000000e+00 -4.6127383930352984e+01 -4.0268665828913022e+01 -1.0710353788808752e+02 0 0 0
1633 47 2 0.0000000000000000e+00 -4.0706555778188843e+01 -4.6433353083305782e+01 -1.1307563525298909e+02 0 0 0
1643 47 2 0.0000000000000000e+00 -1.2280698571336723e+01 -4.6822226393673539e+01 -1.1691112892479312e+02 0 0 0
4843 139 4 0.0000000000000000e+00 -7.6235939725659092e+00 -4.8568764131546814e+01 -1.0882476848549813e+02 0 0 0
1644 47 2 0.0000000000000000e+00 -1.1677894971065129e+01 -3.8740881772038328e+01 -1.1077279328104588e+02 0 0 0
2092 60 2 0.0000000000000000e+00 -8.6219541186466898e+01 -2.7494414551233142e+01 -1.0489962827424256e+02 0 0 0
2091 60 2 0.0000000000000000e+00 -7.7183154772246752e+01 -2.6318371581618493e+01 -1.0624509712102876e+02 0 0 0
2090 60 1 0.0000000000000000e+00 -6.7642862370794063e+01 -2.4581842864641100e+01 -1.0621457745411340e+02 0 0 0
1539 44 2 0.0000000000000000e+00 -3.2444998297337541e+01 -3.4147943833906496e+01 -1.0650588819040105e+02 0 0 0
1540 44 2 0.0000000000000000e+00 -4.1038512030003858e+01 -3.4207570807677399e+01 -1.1236835490500276e+02 0 0 0
1538 44 2 0.0000000000000000e+00 -2.4795270316384833e+01 -3.0116834691321770e+01 -1.1176672111068406e+02 0 0 0
1537 44 1 0.0000000000000000e+00 -1.5395494099763516e+01 -2.9264862382299881e+01 -1.0931935007625449e+02 0 0 0
2549 73 2 0.0000000000000000e+00 -1.3071672736734325e+02 -1.1093900315034515e+01 -1.1113514988160246e+02 0 0 0
2548 73 2 0.0000000000000000e+00 -1.2612119509286916e+02 -1.8931559399073773e+01 -1.0769546119117976e+02 0 0 0
2547 73 2 0.0000000000000000e+00 -1.1608044133331713e+02 -1.7639389391230793e+01 -1.0612799752941987e+02 0 0 0
2081 60 2 0.0000000000000000e+00 -1.0085648469900313e+02 -1.0692098511329778e+01 -1.1702334588515252e+02 0 0 0
4747 136 4 0.0000000000000000e+00 -7.3847904930422885e+01 -1.5660250883068922e+01 -1.1465682723305687e+02 0 0 0
5543 159 4 0.0000000000000000e+00 -6.8713900010379362e+01 -1.2530337860278497e+01 -1.0499701990305194e+02 0 0 0
5542 159 4 0.0000000000000000e+00 -5.9375271896333913e+01 -1.1846224079495888e+01 -1.0821596771295131e+02 0 0 0
1629 47 2 0.0000000000000000e+00 -4.8337935972667118e+01 -1.3624336952027583e+01 -1.0669862791594574e+02 0 0 0
5541 159 3 0.0000000000000000e+00 -5.2920106971394254e+01 -9.7922699646542259e+00 -1.1549152986263437e+02 0 0 0
3021 87 1 0.0000000000000000e+00 -1.8881643747709255e+01 -1.0598284537301216e+01 -1.1804452151265966e+02 0 0 0
1536 44 2 0.0000000000000000e+00 -9.7767358346765523e+00 -2.2057654371549749e+01 -1.0533563238991405e+02 0 0 0
4197 120 3 0.0000000000000000e+00 -7.4466513106625001e+01 -7.9172002929650120e+01 -9.5724674242426900e+01 0 0 0
1370 40 2 0.0000000000000000e+00 -8.4602788576272602e+01 -7.0892264157429693e+01 -9.4799570390969393e+01 0 0 0
1369 40 1 0.0000000000000000e+00 -7.7737903649733042e+01 -7.0227245868285124e+01 -1.0199969869246623e+02 0 0 0
6505 186 4 0.0000000000000000e+00 -5.7304542452958870e+01 -7.1587300451860443e+01 -9.2808440405506190e+01 0 0 0
6506 186 4 0.0000000000000000e+00 -5.6399833356770024e+01 -7.4177186771485850e+01 -1.0256790457986203e+02 0 0 0
2634 76 2 0.0000000000000000e+00 -2.9411307403132756e+01 -7.2503867632407349e+01 -1.0026542089905196e+02 0 0 0
2635 76 2 0.0000000000000000e+00 -2.0929292055876800e+01 -7.6377822235568118e+01 -9.6034449473381969e+01 0 0 0
4847 139 4 0.0000000000000000e+00 -1.7243474335417513e+01 -6.4547203116611087e+01 -9.6937154102197752e+01 0 0 0
4848 139 3 0.0000000000000000e+00 -1.2339783226241265e+01 -7.1376007578782435e+01 -9.1093280351491529e+01 0 0 0
1372 40 2 0.0000000000000000e+00 -9.0480730405269938e+01 -5.3446866521287490e+01 -9.1922906421049689e+01 0 0 0
2221 64 2 0.0000000000000000e+00 -5.5084563517662716e+01 -5.8780035406985078e+01 -9.7272261625905429e+01 0 0 0
4846 139 4 0.0000000000000000e+00 -2.6486639559092435e+01 -6.1788069013207242e+01 -1.0100452160407755e+02 0 0 0
5428 156 4 0.0000000000000000e+00 -7.2861410077709039e+01 -3.8350952142677244e+01 -9.1973400514516968e+01 0 0 0
1611 47 2 0.0000000000000000e+00 -2.6769341815004889e+01 -4.1131800132521533e+01 -9.4680283093023419e+01 0 0 0
1645 47 2 0.0000000000000000e+00 -1.5210468100142640e+01 -4.2587599537070652e+01 -1.0216596301865259e+02 0 0 0
4842 139 4 0.0000000000000000e+00 -3.9685617793728127e+00 -4.9568860420200764e+01 -9.9647193144723076e+01 0 0 0
1614 47 1 0.0000000000000000e+00 -5.0078357099167343e+00 -3.7679903843708694e+01 -9.4700396928321339e+01 0 0 0
2522 73 2 0.0000000000000000e+00 -1.4189663928135053e+02 -2.7254123440493284e+01 -9.1012976262367786e+01 0 0 0
2521 73 2 0.0000000000000000e+00 -1.3363759454344998e+02 -3.1137135741761679e+01 -9.3688977797774328e+01 0 0 0
2093 60 2 0.0000000000000000e+00 -9.4355060658038752e+01 -3.0118536357418552e+01 -9.9618489608558960e+01 0 0 0
5429 156 3 0.0000000000000000e+00 -7.0691305268447749e+01 -3.1285309152492420e+01 -9.8435998702030602e+01 0 0 0
1631 47 2 0.0000000000000000e+00 -5.1480142602952327e+01 -3.3020041134003471e+01 -1.0290763574868784e+02 0 0 0
6321 181 4 0.0000000000000000e+00 -5.4765257215949077e+01 -2.7406872355276612e+01 -9.4510935601190454e+01 0 0 0
6322 181 4 0.0000000000000000e+00 -4.6031793727273630e+01 -2.9477537286321535e+01 -9.3220319106692671e+01 0 0 0
6323 181 4 0.0000000000000000e+00 -3.6790912449039780e+01 -2.7696093659049094e+01 -9.5716628002563198e+01 0 0 0
6324 181 4 0.0000000000000000e+00 -2.7913376052459075e+01 -2.7377163742340045e+01 -9.8932218378799433e+01 0 0 0
6325 181 3 0.0000000000000000e+00 -1.8896612937357379e+01 -2.3666940766797762e+01 -1.0002146499582270e+02 0 0 0
2546 73 2 0.0000000000000000e+00 -1.1141065769033460e+02 -2.0000485682216990e+01 -9.7914804887027472e+01 0 0 0
2094 60 2 0.0000000000000000e+00 -9.6331462685726123e+01 -2.1689119804421416e+01 -9.5631092864790972e+01 0 0 0
5545 159 4 0.0000000000000000e+00 -8.0008063728566341e+01 -1.6159091670724987e+01 -9.3371772796040673e+01 0 0 0
5544 159 4 0.0000000000000000e+00 -7.6430851731621360e+01 -9.2033353649591216e+00 -9.9054060025609360e+01 0 0 0
2089 60 2 0.0000000000000000e+00 -6.0625244321770325e+01 -1.9586077281460810e+01 -1.0128535553022148e+02 0 0 0
2088 60 2 0.0000000000000000e+00 -5.9112352247573824e+01 -1.1685186045019361e+01 -9.5638452241723556e+01 0 0 0
1630 47 2 0.0000000000000000e+00 -5.0287861176319062e+01 -2.2473580564654398e+01 -1.0285313501271555e+02 0 0 0
6326 181 4 0.0000000000000000e+00 -1.1809274015303094e+01 -1.7428604553599932e+01 -9.6635067628398929e+01 0 0 0
3991 115 4 0.0000000000000000e+00 -2.5657693289694517e+01 -9.3210475564612139e+01 -7.9282755903140924e+01 0 0 0
4196 120 4 0.0000000000000000e+00 -7.3771720086133811e+01 -7.9443207587286665e+01 -8.5594049025185612e+01 0 0 0
2636 76 1 0.0000000000000000e+00 -1.4770211494796488e+01 -8.2119266673560915e+01 -9.0691626071853904e+01 0 0 0
2637 76 2 0.0000000000000000e+00 -1.1269707609197424e+01 -8.3194648794142608e+01 -8.1529397826731227e+01 0 0 0
1371 40 2 0.0000000000000000e+00 -8.9225576366873156e+01 -6.3793370003158358e+01 -9.0740443023110871e+01 0 0 0
6502 186 4 0.0000000000000000e+00 -8.1275579299000711e+01 -7.0440146113965881e+01 -7.9318370494134996e+01 0 0 0
6503 186 4 0.0000000000000000e+00 -7.5798667066649983e+01 -6.6081499734775392e+01 -8.6502098159356194e+01 0 0 0
4195 120 4 0.0000000000000000e+00 -6.6784818225682855e+01 -7.3204467438098845e+01 -8.1819307901127729e+01 0 0 0
6504 186 4 0.0000000000000000e+00 -6.6603583907979399e+01 -6.7793479460309754e+01 -9.0397240904424834e+01 0 0 0
4849 139 4 0.0000000000000000e+00 -4.0925714370679893e+00 -7.4354611281653035e+01 -8.6358037727547497e+01 0 0 0
2217 64 2 0.0000000000000000e+00 -7.9876919376693351e+01 -5.5421150998462892e+01 -7.9529468744878585e+01 0 0 0
2219 64 2 0.0000000000000000e+00 -6.3278370760197589e+01 -5.8844059401293158e+01 -8.0154376456263080e+01 0 0 0
2220 64 2 0.0000000000000000e+00 -5.7711906784294939e+01 -5.7045262875542008e+01 -8.8568940430778014e+01 0 0 0
6252 179 4 0.0000000000000000e+00 -1.1052179391695580e+02 -4.3480921556885498e+01 -7.8465766459578560e+01 0 0 0
1373 40 2 0.0000000000000000e+00 -8.1108484515515613e+01 -4.9855334805427049e+01 -8.9816624070878007e+01 0 0 0
5427 156 4 0.0000000000000000e+00 -7.7338273641474814e+01 -3.7520424239633535e+01 -8.3197032932644930e+01 0 0 0
1374 40 2 0.0000000000000000e+00 -7.1594778145318145e+01 -4.7732293043448607e+01 -8.7686542336904452e+01 0 0 0
1375 40 2 0.0000000000000000e+00 -6.7494720689077511e+01 -4.1552361730328101e+01 -8.1590351761301946e+01 0 0 0
4841 139 3 0.0000000000000000e+00 -5.0784162300570213e+00 -4.8158323982447911e+01 -9.0021125379331252e+01 0 0 0
4840 139 4 0.0000000000000000e+00 -6.1689729444011050e+00 -4.5394861378829248e+01 -8.1283747773146303e+01 0 0 0
5769 165 4 0.0000000000000000e+00 -9.7412327024928729e+00 -3.7553438752981123e+01 -7.8986766615250389e+01 0 0 0
6254 179 4 0.0000000000000000e+00 -1.1313269406618582e+02 -2.4033816138685925e+01 -8.4053763797417304e+01 0 0 0
6253 179 4 0.0000000000000000e+00 -1.1213292328668631e+02 -3.3577681259179997e+01 -8.1551509812147273e+01 0 0 0
2211 64 2 0.0000000000000000e+00 -7.3010189794594879e+01 -2.3918613806259838e+01 -7.7454729894445762e+01 0 0 0
6320 181 4 0.0000000000000000e+00 -6.1496786674420285e+01 -2.3501324973590702e+01 -8.8147036083458374e+01 0 0 0
1612 47 2 0.0000000000000000e+00 -2.3527170803073101e+01 -3.5392318296452537e+01 -8.7248407578829017e+01 0 0 0
6328 181 4 0.0000000000000000e+00 -2.2441719669704135e+01 -2.4999211576022994e+01 -8.1487779992337536e+01 0 0 0
1613 47 2 0.0000000000000000e+00 -1.3728724242691632e+01 -3.6154542061176613e+01 -8.9545068315160833e+01 0 0 0
2523 73 2 0.0000000000000000e+00 -1.4890600995680970e+02 -2.0971328998496499e+01 -8.6857886129305513e+01 0 0 0
2524 73 1 0.0000000000000000e+00 -1.4293687276189101e+02 -1.9033346586770516e+01 -7.8917972285501293e+01 0 0 0
6255 179 3 0.0000000000000000e+00 -1.2077245567608705e+02 -1.7595273913957492e+01 -8.2781327712607606e+01 0 0 0
2544 73 2 0.0000000000000000e+00 -1.1387269772199957e+02 -1.2131663200717249e+01 -7.9464192473182479e+01 0 0 0
2545 73 1 0.0000000000000000e+00 -1.1245364716960526e+02 -1.4588231566160090e+01 -8.9423612093056832e+01 0 0 0
6516 187 4 0.0000000000000000e+00 -9.5727227167403356e+01 -1.1077007571506590e+01 -7.8609926240871488e+01 0 0 0
2095 60 2 0.0000000000000000e+00 -9.7355924661399442e+01 -1.5162037105043167e+01 -8.7796757526642665e+01 0 0 0
5546 159 4 0.0000000000000000e+00 -8.5189846998679585e+01 -1.4766175079585395e+01 -8.4329240805074704e+01 0 0 0
6319 181 4 0.0000000000000000e+00 -6.6156156495908604e+01 -1.5487877123672980e+01 -8.6949329379118623e+01 0 0 0
6327 181 4 0.0000000000000000e+00 -1.7295757116089561e+01 -2.0509576531597968e+01 -8.8906239742448136e+01 0 0 0
5254 151 3 0.0000000000000000e+00 -1.0492227346465585e+01 -1.1469156041480323e+01 -7.7496882112691637e+01 0 0 0
2658 76 2 0.0000000000000000e+00 -5.3086916196998981e+00 -1.9848581119805992e+01 -8.8259769798524232e+01 0 0 0
2657 76 1 0.0000000000000000e+00 -8.1910339886209833e+00 -1.0019890327899557e+01 -8.8638813289319614e+01 0 0 0
4855 139 3 0.0000000000000000e+00 -7.8339182145569923e+00 -1.2025174749140290e+02 -6.5538383028900000e+01 0 0 0
4856 139 4 0.0000000000000000e+00 -3.3650760058349394e+00 -1.2837041541825621e+02 -6.7824273406664432e+01 0 0 0
3992 115 4 0.0000000000000000e+00 -2.9578551544538701e+01 -9.3789617667814255e+01 -7.0361396125278674e+01 0 0 0
4853 139 4 0.0000000000000000e+00 -5.9294578989081286e+00 -1.0323445290236947e+02 -6.4043554291950770e+01 0 0 0
2810 81 2 0.0000000000000000e+00 -3.5412132201372224e+01 -8.4477095513747528e+01 -6.6224956258728312e+01 0 0 0
6501 186 4 0.0000000000000000e+00 -8.6480259533546231e+01 -7.0261213163122790e+01 -7.1036820851009793e+01 0 0 0
6500 186 3 0.0000000000000000e+00 -9.3519460748524438e+01 -6.5392177047363603e+01 -6.6339376514531793e+01 0 0 0
4194 120 4 0.0000000000000000e+00 -6.0805891997208349e+01 -6.9160300733798934e+01 -7.5430349122936036e+01 0 0 0
6335 181 4 0.0000000000000000e+00 -3.7295905251473528e+01 -7.2197822492473179e+01 -6.8805679692456295e+01 0 0 0
6334 181 4 0.0000000000000000e+00 -4.2467915750602899e+01 -6.3947819422726646e+01 -6.8355824334924577e+01 0 0 0
2638 76 2 0.0000000000000000e+00 -9.9796183515617560e+00 -7.3952380068235328e+01 -7.7045367392354862e+01 0 0 0
3998 115 4 0.0000000000000000e+00 -9.1365394619209184e+00 -7.2021758792964846e+01 -6.5243754679761977e+01 0 0 0
6497 186 4 0.0000000000000000e+00 -1.1590481196542471e+02 -5.4937691696943418e+01 -7.0552516022210369e+01 0 0 0
6496 186 4 0.0000000000000000e+00 -1.2458686167746211e+02 -5.0941505547355206e+01 -7.2417262897348920e+01 0 0 0
6498 186 4 0.0000000000000000e+00 -1.0882022274003330e+02 -5.8892521593743787e+01 -6.3782050654334185e+01 0 0 0
2215 64 2 0.0000000000000000e+00 -8.9516999428781318e+01 -5.0726034592626299e+01 -7.2694992316256418e+01 0 0 0
2216 64 1 0.0000000000000000e+00 -8.4953526311356683e+01 -5.9422387046646939e+01 -7.2041372264071384e+01 0 0 0
2218 64 2 0.0000000000000000e+00 -7.1382375380347014e+01 -5.5623993830628145e+01 -7.5380949433960637e+01 0 0 0
4193 120 4 0.0000000000000000e+00 -6.4716531892971005e+01 -6.3186503892012055e+01 -6.8013576973134263e+01 0 0 0
1377 40 2 0.0000000000000000e+00 -6.7430163594296545e+01 -5.0177295373397875e+01 -6.6461902566627458e+01 0 0 0
6333 181 4 0.0000000000000000e+00 -4.5154195613478045e+01 -5.3812918250171393e+01 -6.9388704217009717e+01 0 0 0
6494 186 4 0.0000000000000000e+00 -1.3812935414836736e+02 -3.6674322720659340e+01 -7.1003393546135300e+01 0 0 0
6495 186 4 0.0000000000000000e+00 -1.3167145251293746e+02 -4.4075944924596996e+01 -7.1577588124378522e+01 0 0 0
6251 179 4 0.0000000000000000e+00 -1.0583618933896381e+02 -3.9402077743870812e+01 -7.0989051566692424e+01 0 0 0
2214 64 2 0.0000000000000000e+00 -9.1620252501282039e+01 -4.1460884342247809e+01 -7.5958495366779886e+01 0 0 0
6250 179 4 0.0000000000000000e+00 -9.7414566501512368e+01 -3.6999579598722526e+01 -6.6118078292064624e+01 0 0 0
6249 179 4 0.0000000000000000e+00 -8.7985501192966595e+01 -3.7473647310811700e+01 -6.3777182810242444e+01 0 0 0
5426 156 4 0.0000000000000000e+00 -7.4934348779047269e+01 -4.2944937940742150e+01 -7.4721072575648094e+01 0 0 0
1376 40 1 0.0000000000000000e+00 -6.3023296546693082e+01 -4.5954632772893703e+01 -7.4237253062795617e+01 0 0 0
6332 181 3 0.0000000000000000e+00 -5.2157106768583915e+01 -4.6896110858578375e+01 -7.1493092619209818e+01 0 0 0
6331 181 4 0.0000000000000000e+00 -4.2729836738575564e+01 -4.4715002736887719e+01 -7.4324649306523085e+01 0 0 0
6330 181 4 0.0000000000000000e+00 -3.5251716542770907e+01 -3.8318804055105460e+01 -7.4058396058184258e+01 0 0 0
5554 159 4 0.0000000000000000e+00 -3.6333275457560838e+01 -4.5311476170643871e+01 -6.4880514536458563e+01 0 0 0
5771 165 4 0.0000000000000000e+00 -2.1474485411439922e+01 -3.7029767969451790e+01 -6.7588025578689653e+01 0 0 0
5770 165 4 0.0000000000000000e+00 -1.8971057685554310e+01 -4.1105934541232820e+01 -7.6857117408589559e+01 0 0 0
4839 139 4 0.0000000000000000e+00 -9.9356174850263752e+00 -4.7164623593939730e+01 -7.1653003435776199e+01 0 0 0
6493 186 3 0.0000000000000000e+00 -1.4327753857749835e+02 -2.8692319539838788e+01 -7.3256627596727512e+01 0 0 0
2526 73 2 0.0000000000000000e+00 -1.3198673921927954e+02 -2.5319379567169690e+01 -6.5076044421378768e+01 0 0 0
2213 64 2 0.0000000000000000e+00 -8.8387971545555928e+01 -3.2869197867503097e+01 -7.1879069245010569e+01 0 0 0
2212 64 2 0.0000000000000000e+00 -8.2331397742298520e+01 -2.6221815385366593e+01 -7.5152466991692719e+01 0 0 0
6329 181 4 0.0000000000000000e+00 -2.8701909184409462e+01 -3.1048635991316267e+01 -7.6296472503619000e+01 0 0 0
6492 186 4 0.0000000000000000e+00 -1.4736937210460746e+02 -2.0460749154847523e+01 -6.8615770346260803e+01 0 0 0
6491 186 4 0.0000000000000000e+00 -1.4734129302759342e+02 -1.1321988015736739e+01 -6.4432979805373861e+01 0 0 0
2525 73 2 0.0000000000000000e+00 -1.3660498429661848e+02 -1.9691468753606866e+01 -7.1404566596869728e+01 0 0 0
2543 73 2 0.0000000000000000e+00 -1.1520565825668415e+02 -1.1797330755337862e+01 -6.8640398880203378e+01 0 0 0
5547 159 4 0.0000000000000000e+00 -8.3302996400756911e+01 -1.5480535268168458e+01 -7.4926953406947860e+01 0 0 0
5548 159 3 0.0000000000000000e+00 -8.1648984517099947e+01 -1.7418301257560653e+01 -6.5800282384101578e+01 0 0 0
5549 159 4 0.0000000000000000e+00 -7.2532956733065518e+01 -2.1244531889093139e+01 -6.3660835152262024e+01 0 0 0
2210 64 2 0.0000000000000000e+00 -6.8433379102680206e+01 -1.5259961794701068e+01 -7.5902117955147219e+01 0 0 0
5257 151 4 0.0000000000000000e+00 -3.6797914193405155e+01 -1.2401771694147428e+01 -7.2496933068701466e+01 0 0 0
5258 151 4 0.0000000000000000e+00 -4.2006096921701719e+01 -9.8696745011427858e+00 -6.4293138661310721e+01 0 0 0
5256 151 4 0.0000000000000000e+00 -2.7038958673265157e+01 -1.3482770536876830e+01 -7.2025785689144499e+01 0 0 0
5255 151 4 0.0000000000000000e+00 -1.9404583970479649e+01 -9.2825270929262356e+00 -7.6302047021276607e+01 0 0 0
5253 151 4 0.0000000000000000e+00 -4.3746645326426181e+00 -1.5649721844414515e+01 -7.1243885042920539e+01 0 0 0
4854 139 4 0.0000000000000000e+00 -9.9916950070563715e+00 -1.1166385306215781e+02 -6.2271624988960575e+01 0 0 0
2815 81 2 0.0000000000000000e+00 -6.9139205821677038e+01 -9.1967662431522214e+01 -5.1773442430838749e+01 0 0 0
3993 115 4 0.0000000000000000e+00 -3.6113733412803761e+01 -9.7305057391600513e+01 -6.3206640618023222e+01 0 0 0
6231 179 4 0.0000000000000000e+00 -1.4339036832942988e+01 -9.7547524916270135e+01 -6.0121193484652174e+01 0 0 0
6232 179 4 0.0000000000000000e+00 -1.3045078788656308e+01 -9.5634103714782171e+01 -5.0194519586191078e+01 0 0 0
6244 179 4 0.0000000000000000e+00 -8.3669347217629507e+01 -8.3645342867178655e+01 -5.3465832854317547e+01 0 0 0
2814 81 2 0.0000000000000000e+00 -6.8216128127597003e+01 -8.1836244452022129e+01 -5.5361920883164025e+01 0 0 0
2813 81 2 0.0000000000000000e+00 -5.9359707316609516e+01 -7.8135217001205447e+01 -5.6491785961559899e+01 0 0 0
2812 81 2 0.0000000000000000e+00 -5.1658919584227604e+01 -8.2213914447192323e+01 -6.1059827283678722e+01 0 0 0
2811 81 1 0.0000000000000000e+00 -4.2519972218585458e+01 -8.3190672888005537e+01 -5.8921681158290141e+01 0 0 0
3994 115 3 0.0000000000000000e+00 -3.3059900314655025e+01 -8.9694173538214145e+01 -5.7411184024335284e+01 0 0 0
3995 115 4 0.0000000000000000e+00 -3.0822147546948383e+01 -8.1639857179114330e+01 -5.2923498817561757e+01 0 0 0
2809 81 2 0.0000000000000000e+00 -2.6353196225311169e+01 -8.4516430215745729e+01 -6.2752034025603336e+01 0 0 0
2808 81 2 0.0000000000000000e+00 -1.8928771302345481e+01 -8.4165904437830420e+01 -5.5535612835761697e+01 0 0 0
2807 81 2 0.0000000000000000e+00 -1.2719025716643973e+01 -7.7665520489698039e+01 -5.0002204032691559e+01 0 0 0