LAMMPS data file via write_data, version 5 Jun 2019, timestep = 360000000

7000 atoms
4 atom types
7285 bonds
3 bond types
6600 angles
2 angle types

-5.0000000000000000e+02 5.0000000000000000e+02 xlo xhi
-5.0000000000000000e+02 5.0000000000000000e+02 ylo yhi
-5.0000000000000000e+02 5.0000000000000000e+02 zlo zhi

Masses

1 1000
2 1000
3 1000
4 1000

Pair Coeffs # lj/cut

1 0.178 10
2 0.178 10
3 0.178 10
4 0.178 10

Angle Coeffs # cosine

1 2
2 2

Atoms # full

4445 127 4 0.0000000000000000e+00 -9.9216810274159798e+01 -1.4015125564065679e+01 -1.8907635016394372e+02 0 0 0
2226 64 2 0.0000000000000000e+00 -6.1900589808358738e+01 -3.9084975916538966e+01 -1.7518747223318684e+02 0 0 0
4733 136 4 0.0000000000000000e+00 -3.2535993834213663e+01 -3.3005525876673175e+01 -1.7714734202780508e+02 0 0 0
4732 136 4 0.0000000000000000e+00 -2.6077851631524268e+01 -3.8037621176514818e+01 -1.8278462742741445e+02 0 0 0
4444 127 4 0.0000000000000000e+00 -9.4726164297845784e+01 -5.9964629727230161e+00 -1.8510067659749063e+02 0 0 0
4443 127 4 0.0000000000000000e+00 -8.8791967805316460e+01 -7.3967159583158146e+00 -1.7708980529232301e+02 0 0 0
2224 64 2 0.0000000000000000e+00 -6.1221624969400331e+01 -5.6072951536231194e+01 -1.6429270751955548e+02 0 0 0
6508 186 4 0.0000000000000000e+00 -4.8639169211960343e+01 -6.4665510055011680e+01 -1.6288533584270090e+02 0 0 0
2225 64 2 0.0000000000000000e+00 -6.0604091223132869e+01 -4.7348122571991865e+01 -1.6927257818022250e+02 0 0 0
2227 64 2 0.0000000000000000e+00 -6.8634263727351055e+01 -3.1837565679226127e+01 -1.7126714172160496e+02 0 0 0
4734 136 4 0.0000000000000000e+00 -3.7795416177381561e+01 -2.6216598011133161e+01 -1.7304450797584039e+02 0 0 0
4735 136 4 0.0000000000000000e+00 -3.9493785148006253e+01 -2.6821978796454907e+01 -1.6327523019455998e+02 0 0 0
4731 136 4 0.0000000000000000e+00 -2.0820888944729589e+01 -3.8770977773230278e+01 -1.7411264172106678e+02 0 0 0
4730 136 4 0.0000000000000000e+00 -2.6263382309304482e+01 -3.7846267886869114e+01 -1.6496045763400025e+02 0 0 0
2228 64 2 0.0000000000000000e+00 -6.7670246801914573e+01 -2.2530257154544135e+01 -1.7419640206617615e+02 0 0 0
2229 64 2 0.0000000000000000e+00 -6.9488117279087618e+01 -1.3248490085274700e+01 -1.7213264766384154e+02 0 0 0
4442 127 3 0.0000000000000000e+00 -8.3262728655655806e+01 -6.4258457767240467e+00 -1.6952619542642353e+02 0 0 0
2230 64 1 0.0000000000000000e+00 -7.2418163085838870e+01 -4.2855749663736100e+00 -1.6917707046192555e+02 0 0 0
4441 127 4 0.0000000000000000e+00 -8.1955980488101730e+01 3.4879784138590466e+00 -1.6655552386238560e+02 0 0 0
2072 60 2 0.0000000000000000e+00 -7.5235386102547551e+01 2.6956256690201695e+01 -1.6162734288472956e+02 0 0 0
2221 64 2 0.0000000000000000e+00 -6.0660020877448382e+01 -8.1380059797545641e+01 -1.4955786000288708e+02 0 0 0
2222 64 2 0.0000000000000000e+00 -6.1128727729968865e+01 -7.4162020881265363e+01 -1.5685556167229737e+02 0 0 0
6510 186 4 0.0000000000000000e+00 -4.8345643110591340e+01 -7.9584128571698756e+01 -1.5151645267285809e+02 0 0 0
6509 186 4 0.0000000000000000e+00 -4.4698915251877978e+01 -7.2048559092556459e+01 -1.5778222694801116e+02 0 0 0
6505 186 4 0.0000000000000000e+00 -6.8114069166382322e+01 -6.0461979543803054e+01 -1.4797408861771061e+02 0 0 0
2223 64 1 0.0000000000000000e+00 -6.0529822356807728e+01 -6.4945212802189459e+01 -1.5955264619492141e+02 0 0 0
6506 186 4 0.0000000000000000e+00 -6.1889407778184925e+01 -5.4705886835347584e+01 -1.5333271898654050e+02 0 0 0
6507 186 3 0.0000000000000000e+00 -5.2643540456957254e+01 -5.7965033700877846e+01 -1.5668164135612943e+02 0 0 0
1633 47 2 0.0000000000000000e+00 -4.1473779082208935e+01 -6.2629171057692098e+01 -1.5361511556830479e+02 0 0 0
1632 47 2 0.0000000000000000e+00 -4.9110688979902143e+01 -6.0664625825733303e+01 -1.4770437447832936e+02 0 0 0
1634 47 2 0.0000000000000000e+00 -3.3963999830527818e+01 -5.5696596686538847e+01 -1.5411520785018155e+02 0 0 0
2238 64 2 0.0000000000000000e+00 -9.2184599656832944e+01 -4.2644901785754953e+01 -1.4895375853845022e+02 0 0 0
5427 156 4 0.0000000000000000e+00 -7.0938558413881623e+01 -4.5122913901273272e+01 -1.5151747307348927e+02 0 0 0
5426 156 4 0.0000000000000000e+00 -6.6022480083315642e+01 -4.3315284029207021e+01 -1.5931370108820988e+02 0 0 0
4728 136 4 0.0000000000000000e+00 -3.9528801847058794e+01 -4.4985288702844876e+01 -1.5188311663089240e+02 0 0 0
4729 136 3 0.0000000000000000e+00 -3.3566637414277835e+01 -3.9803926527645714e+01 -1.5776423973491598e+02 0 0 0
1635 47 1 0.0000000000000000e+00 -2.7796788588887374e+01 -4.8504011422851796e+01 -1.5361772567690900e+02 0 0 0
6300 180 4 0.0000000000000000e+00 -1.4520003832245044e+02 -2.9807276494545007e+01 -1.5063347903583272e+02 0 0 0
4743 136 3 0.0000000000000000e+00 -8.0697293736865319e+01 -3.7026528864717420e+01 -1.4833197431234686e+02 0 0 0
4742 136 4 0.0000000000000000e+00 -7.6442717490276820e+01 -2.7741995742611511e+01 -1.4867276689805414e+02 0 0 0
4737 136 4 0.0000000000000000e+00 -4.7696772805927132e+01 -1.5001252161105905e+01 -1.5018009700495884e+02 0 0 0
4736 136 3 0.0000000000000000e+00 -4.3971445950934793e+01 -2.2181903423761671e+01 -1.5563680566111421e+02 0 0 0
2232 64 2 0.0000000000000000e+00 -7.6796000970832964e+01 -3.5749817500190169e+00 -1.5106394395798185e+02 0 0 0
2231 64 2 0.0000000000000000e+00 -7.6148785984941242e+01 -1.5774570342097776e+00 -1.6084230426467411e+02 0 0 0
4738 136 4 0.0000000000000000e+00 -5.4367484732561906e+01 -7.9841555194942284e+00 -1.4855471497584432e+02 0 0 0
2076 60 1 0.0000000000000000e+00 -1.0937630888287104e+02 1.4693507184789860e+01 -1.4941452500284410e+02 0 0 0
4440 127 4 0.0000000000000000e+00 -8.0378635965298230e+01 6.6208852292171967e+00 -1.5697929780955312e+02 0 0 0
2075 60 2 0.0000000000000000e+00 -9.9490639661690295e+01 1.5597441760392092e+01 -1.5215393378350802e+02 0 0 0
2074 60 2 0.0000000000000000e+00 -9.0363860263236930e+01 1.6793481609481809e+01 -1.5560264761644575e+02 0 0 0
2073 60 2 0.0000000000000000e+00 -8.1971009846277127e+01 1.9348680174421084e+01 -1.6013607385311028e+02 0 0 0
4439 127 4 0.0000000000000000e+00 -7.8136977091792204e+01 1.5228755683470174e+01 -1.5258789745815486e+02 0 0 0
4438 127 4 0.0000000000000000e+00 -7.0923415130550495e+01 2.3030581075310607e+01 -1.5148498876724119e+02 0 0 0
6338 182 4 0.0000000000000000e+00 -1.3070775689176926e+02 3.5716042154963439e+01 -1.4784059542907005e+02 0 0 0
6309 181 4 0.0000000000000000e+00 -9.7772713790580767e+01 3.0295578245757461e+01 -1.4938824939405191e+02 0 0 0
5911 169 4 0.0000000000000000e+00 -9.6149963632019521e+01 4.1439759704467093e+01 -1.6082744114234288e+02 0 0 0
2070 60 2 0.0000000000000000e+00 -8.2436686973078608e+01 4.0479092494501508e+01 -1.5136288790335354e+02 0 0 0
2071 60 2 0.0000000000000000e+00 -7.8574058951370148e+01 3.1064015141859734e+01 -1.5322094022955145e+02 0 0 0
5914 169 4 0.0000000000000000e+00 -7.2093483769407001e+01 4.0683358957791306e+01 -1.5448160136352200e+02 0 0 0
2220 64 2 0.0000000000000000e+00 -6.1395809661750320e+01 -8.3292268076866094e+01 -1.3972408545186553e+02 0 0 0
6503 186 4 0.0000000000000000e+00 -7.3892488751207566e+01 -7.6697149371563881e+01 -1.3887602715406223e+02 0 0 0
6504 186 4 0.0000000000000000e+00 -7.1101517321433604e+01 -6.9224424363012275e+01 -1.4475621426934768e+02 0 0 0
2240 64 2 0.0000000000000000e+00 -8.6283185429273985e+01 -5.8974826322102516e+01 -1.4669579426865445e+02 0 0 0
2091 60 2 0.0000000000000000e+00 -8.9242893950642639e+01 -6.2656981993444546e+01 -1.3469266475840212e+02 0 0 0
5429 156 3 0.0000000000000000e+00 -7.3198483422293535e+01 -5.5636498972023126e+01 -1.3516879261336743e+02 0 0 0
4726 136 4 0.0000000000000000e+00 -3.2970547101426888e+01 -5.7248251311967024e+01 -1.3835472249266812e+02 0 0 0
2239 64 2 0.0000000000000000e+00 -9.2139540868143570e+01 -5.0857096084845047e+01 -1.4351167907180931e+02 0 0 0
4744 136 4 0.0000000000000000e+00 -8.2778879517644910e+01 -4.2466649306109581e+01 -1.4012063900914120e+02 0 0 0
5428 156 4 0.0000000000000000e+00 -7.2628099548468128e+01 -5.1241008439207683e+01 -1.4422582771228915e+02 0 0 0
1630 47 2 0.0000000000000000e+00 -6.0663344793023107e+01 -4.4609024479542846e+01 -1.4512527578603004e+02 0 0 0
1631 47 2 0.0000000000000000e+00 -5.4037728635485699e+01 -5.2407931412093724e+01 -1.4662199143840681e+02 0 0 0
4727 136 4 0.0000000000000000e+00 -3.5790717095151891e+01 -4.8576075818065164e+01 -1.4358576131164233e+02 0 0 0
1636 47 2 0.0000000000000000e+00 -2.5718951037024656e+01 -4.2525641662864011e+01 -1.4630087098222333e+02 0 0 0
2555 73 2 0.0000000000000000e+00 -1.6696783707146375e+02 -2.5762764153155953e+01 -1.4399129364085246e+02 0 0 0
6299 180 4 0.0000000000000000e+00 -1.3811257685698982e+02 -2.5965531233571955e+01 -1.4475750382450940e+02 0 0 0
6298 180 4 0.0000000000000000e+00 -1.3422274409570505e+02 -2.9963055967365626e+01 -1.3658337630300906e+02 0 0 0
2237 64 1 0.0000000000000000e+00 -9.0703882391573330e+01 -3.3773601343404913e+01 -1.4511092252435580e+02 0 0 0
2236 64 2 0.0000000000000000e+00 -8.3150657264692526e+01 -2.8294777660401024e+01 -1.4085285287689368e+02 0 0 0
1629 47 2 0.0000000000000000e+00 -6.8317829725844220e+01 -3.7839627528150110e+01 -1.4576409903770684e+02 0 0 0
1628 47 1 0.0000000000000000e+00 -7.1622410196118423e+01 -3.6490449864639068e+01 -1.3630399627470172e+02 0 0 0
1623 47 2 0.0000000000000000e+00 -4.8676067387930246e+01 -3.6535406839716046e+01 -1.3839207317259010e+02 0 0 0
1622 47 2 0.0000000000000000e+00 -4.7273449296213727e+01 -2.7995051386480213e+01 -1.4293001906823494e+02 0 0 0
1637 47 2 0.0000000000000000e+00 -2.3884136616553373e+01 -3.5992509088383251e+01 -1.3857426291889965e+02 0 0 0
1638 47 2 0.0000000000000000e+00 -1.6026404057252797e+01 -3.1117599586429883e+01 -1.3523350795517160e+02 0 0 0
2554 73 2 0.0000000000000000e+00 -1.5698587976448363e+02 -2.4616436526616123e+01 -1.4405008771901686e+02 0 0 0
2553 73 2 0.0000000000000000e+00 -1.4934769694081913e+02 -2.3190923386333132e+01 -1.3781400453860996e+02 0 0 0
2235 64 2 0.0000000000000000e+00 -7.8035151354992124e+01 -2.1856015358571238e+01 -1.3536527416630091e+02 0 0 0
4741 136 4 0.0000000000000000e+00 -7.7914566653177388e+01 -1.8156094064827187e+01 -1.4511931641279307e+02 0 0 0
4740 136 4 0.0000000000000000e+00 -7.0119408726415628e+01 -1.5796093585068572e+01 -1.3956460669868281e+02 0 0 0
2234 64 2 0.0000000000000000e+00 -7.9169457089491360e+01 -1.2850434883321590e+01 -1.3451551367150535e+02 0 0 0
4739 136 4 0.0000000000000000e+00 -6.2965616402246454e+01 -1.2572361835396874e+01 -1.4549859227640422e+02 0 0 0
1621 47 1 0.0000000000000000e+00 -3.9033672044353658e+01 -2.2748448111811683e+01 -1.4596679715779510e+02 0 0 0
1620 47 2 0.0000000000000000e+00 -3.4287399580670808e+01 -1.7052713389004580e+01 -1.3921661527102435e+02 0 0 0
2078 60 2 0.0000000000000000e+00 -1.2157421027997427e+02 1.3541838239141286e+00 -1.4233940573067926e+02 0 0 0
2233 64 2 0.0000000000000000e+00 -7.8708285290638841e+01 -5.8856356289640184e+00 -1.4159667934678146e+02 0 0 0
2077 60 2 0.0000000000000000e+00 -1.1529392884210861e+02 9.3010682795936717e+00 -1.4406153152617381e+02 0 0 0
6336 182 4 0.0000000000000000e+00 -1.4363525182418383e+02 2.2506670594354908e+01 -1.4462496345072876e+02 0 0 0
6337 182 4 0.0000000000000000e+00 -1.3467819046119595e+02 2.7650264425694548e+01 -1.4461450239996225e+02 0 0 0
6311 181 3 0.0000000000000000e+00 -1.0775650326004732e+02 2.5342270653396518e+01 -1.4589577726235191e+02 0 0 0
6312 181 4 0.0000000000000000e+00 -1.0570648111634418e+02 1.8647339756631109e+01 -1.3897181403571557e+02 0 0 0
6307 181 4 0.0000000000000000e+00 -8.7215517649193828e+01 2.6957623162996388e+01 -1.3398607513491362e+02 0 0 0
1805 52 2 0.0000000000000000e+00 -7.6188957234030298e+01 2.5168020097101756e+01 -1.4002675463104626e+02 0 0 0
4437 127 4 0.0000000000000000e+00 -6.6335953931455876e+01 2.6297774984688193e+01 -1.4333082494039385e+02 0 0 0
4436 127 4 0.0000000000000000e+00 -5.7649524992227107e+01 2.4909235154635088e+01 -1.3969003671162946e+02 0 0 0
4435 127 3 0.0000000000000000e+00 -4.8911302661528190e+01 2.5942692032884956e+01 -1.3527502837862531e+02 0 0 0
3014 87 1 0.0000000000000000e+00 -4.0229429807513483e+01 1.9080950864569925e+01 -1.3533635693022615e+02 0 0 0
1798 52 2 0.0000000000000000e+00 -1.1258588709075477e+02 3.4132442923904954e+01 -1.3930656936428224e+02 0 0 0
1797 52 2 0.0000000000000000e+00 -1.1850596234247004e+02 4.0993084955143033e+01 -1.4334570097083613e+02 0 0 0
6310 181 4 0.0000000000000000e+00 -1.0554169620613067e+02 3.5354809484106710e+01 -1.4574735921705241e+02 0 0 0
6308 181 4 0.0000000000000000e+00 -9.3948267958738285e+01 2.8489178342539645e+01 -1.4096481322697517e+02 0 0 0
1807 52 2 0.0000000000000000e+00 -8.6724902196779169e+01 4.0569887274936910e+01 -1.3848241765035021e+02 0 0 0
1806 52 2 0.0000000000000000e+00 -7.8620908837009509e+01 3.5153244951106451e+01 -1.3773981341712911e+02 0 0 0
6501 186 4 0.0000000000000000e+00 -8.0092688369009423e+01 -8.3214250168023000e+01 -1.2244538400768012e+02 0 0 0
6502 186 4 0.0000000000000000e+00 -7.7467807744430118e+01 -8.2927596012398880e+01 -1.3269277108399635e+02 0 0 0
2219 64 2 0.0000000000000000e+00 -6.1697696977046810e+01 -8.2036051251385757e+01 -1.2967775350497161e+02 0 0 0
2218 64 2 0.0000000000000000e+00 -6.3836800129979679e+01 -7.9182518949491723e+01 -1.2061161320471840e+02 0 0 0
5431 156 4 0.0000000000000000e+00 -6.0940280224803672e+01 -6.9835980422445459e+01 -1.2707680799032717e+02 0 0 0
5432 156 4 0.0000000000000000e+00 -5.3114937864741535e+01 -7.1717821317718006e+01 -1.2104366748720909e+02 0 0 0
2092 60 2 0.0000000000000000e+00 -9.8296947893313146e+01 -5.8971038448990093e+01 -1.3262146378889909e+02 0 0 0
2093 60 2 0.0000000000000000e+00 -1.0684964996179870e+02 -5.4667457194143232e+01 -1.2852824498986269e+02 0 0 0
2089 60 2 0.0000000000000000e+00 -8.3526480465385731e+01 -5.6831805104820340e+01 -1.2262199996649653e+02 0 0 0
2090 60 1 0.0000000000000000e+00 -8.0644073638656707e+01 -6.2501580029186123e+01 -1.3027293321707981e+02 0 0 0
5430 156 4 0.0000000000000000e+00 -6.7970197390620811e+01 -6.4164929197109359e+01 -1.3252574968849564e+02 0 0 0
5436 156 3 0.0000000000000000e+00 -1.8511257912384671e+01 -6.5289639451797626e+01 -1.2383487110530221e+02 0 0 0
2094 60 2 0.0000000000000000e+00 -1.1321218797722700e+02 -5.2467574822185007e+01 -1.2075464270147158e+02 0 0 0
4746 136 4 0.0000000000000000e+00 -9.7429287276824681e+01 -4.8804150369769751e+01 -1.3191295809384675e+02 0 0 0
4747 136 4 0.0000000000000000e+00 -1.0223175054413288e+02 -3.9517684946566206e+01 -1.2996038071664421e+02 0 0 0
4745 136 4 0.0000000000000000e+00 -8.8712404951058559e+01 -4.4112138597746089e+01 -1.3177925844700442e+02 0 0 0
1627 47 2 0.0000000000000000e+00 -7.1093008861952953e+01 -4.0771222928430610e+01 -1.2728811908230058e+02 0 0 0
1625 47 2 0.0000000000000000e+00 -5.5238390342817745e+01 -4.3185042397052896e+01 -1.2238970874024021e+02 0 0 0
4546 130 4 0.0000000000000000e+00 -2.8125716096119792e+01 -4.4228044826083298e+01 -1.2827685251146016e+02 0 0 0
3021 87 1 0.0000000000000000e+00 -3.5815386093846421e+01 -3.9300343094496512e+01 -1.2064465951279891e+02 0 0 0
4545 130 4 0.0000000000000000e+00 -1.8918703204396156e+01 -4.6900169078066689e+01 -1.2553459680104346e+02 0 0 0
6297 180 3 0.0000000000000000e+00 -1.3241286604418775e+02 -2.8023876759149747e+01 -1.2740875245667459e+02 0 0 0
4748 136 4 0.0000000000000000e+00 -1.0648516994286652e+02 -3.4457238951274157e+01 -1.2282698108912557e+02 0 0 0
5542 159 4 0.0000000000000000e+00 -7.9169063645963675e+01 -3.4102152729774041e+01 -1.2429131590719481e+02 0 0 0
5541 159 3 0.0000000000000000e+00 -7.2575156376329275e+01 -2.8110892753515355e+01 -1.2894396248702540e+02 0 0 0
1624 47 2 0.0000000000000000e+00 -4.8307333086480810e+01 -3.9278093539995808e+01 -1.2838052227738183e+02 0 0 0
4550 130 4 0.0000000000000000e+00 -5.2908552634303540e+01 -2.7734054590110738e+01 -1.2193947696653080e+02 0 0 0
4548 130 4 0.0000000000000000e+00 -4.0881705624673828e+01 -2.8069475764465022e+01 -1.3092043557206310e+02 0 0 0
4547 130 3 0.0000000000000000e+00 -3.4482561000210218e+01 -3.6448681705559011e+01 -1.3109301020048935e+02 0 0 0
3022 87 2 0.0000000000000000e+00 -3.0042376786305606e+01 -3.1653281643699898e+01 -1.2361657380096447e+02 0 0 0
2552 73 1 0.0000000000000000e+00 -1.4100614096610863e+02 -2.3252859192085360e+01 -1.3250938580349512e+02 0 0 0
2551 73 2 0.0000000000000000e+00 -1.4188132637637295e+02 -1.7691186807020067e+01 -1.2417832078404390e+02 0 0 0
2206 64 2 0.0000000000000000e+00 -8.9227518302874202e+01 -1.7921373727826129e+01 -1.2733386666151503e+02 0 0 0
2207 64 2 0.0000000000000000e+00 -8.0797820359678397e+01 -1.6891465573182565e+01 -1.2259080671690373e+02 0 0 0
5540 159 4 0.0000000000000000e+00 -6.3913663011986209e+01 -2.3584973169272011e+01 -1.3150133966413634e+02 0 0 0
5539 159 4 0.0000000000000000e+00 -5.7835586765796762e+01 -1.6118209008201482e+01 -1.3275628094136272e+02 0 0 0
4549 130 4 0.0000000000000000e+00 -4.7553772616552180e+01 -2.1825363047982076e+01 -1.2742502995401009e+02 0 0 0
3018 87 2 0.0000000000000000e+00 -4.3586140822544820e+01 -1.5236836394042598e+01 -1.2170677436419444e+02 0 0 0
1619 47 2 0.0000000000000000e+00 -3.3822344323049066e+01 -1.5925240243048895e+01 -1.2941296768403060e+02 0 0 0
1618 47 2 0.0000000000000000e+00 -3.0513304751107206e+01 -1.9741937090168083e+01 -1.2087669958618633e+02 0 0 0
3023 87 2 0.0000000000000000e+00 -2.2630129103389567e+01 -2.5063648299076057e+01 -1.2499362603205462e+02 0 0 0
2079 60 2 0.0000000000000000e+00 -1.2023598325497595e+02 -1.0180820247582199e+00 -1.3249935516542141e+02 0 0 0
2080 60 2 0.0000000000000000e+00 -1.1251467174994711e+02 1.1969200458335552e+00 -1.2641659777220067e+02 0 0 0
6316 181 4 0.0000000000000000e+00 -7.6003086000953246e+01 -7.3333959010620853e-01 -1.3050485043349610e+02 0 0 0
6317 181 4 0.0000000000000000e+00 -6.9901918183926483e+01 -2.2105740808004857e+00 -1.2310587749451673e+02 0 0 0
5538 159 4 0.0000000000000000e+00 -5.5455346041412845e+01 -6.4491441815683261e+00 -1.3189630454187130e+02 0 0 0
6318 181 3 0.0000000000000000e+00 -6.3684405223571908e+01 -9.9783884937659533e+00 -1.2149280585787123e+02 0 0 0
3017 87 2 0.0000000000000000e+00 -4.6045302920570791e+01 -8.2817950024528617e+00 -1.2832588371986060e+02 0 0 0
6319 181 4 0.0000000000000000e+00 -5.4076168841621474e+01 -8.1744561101787792e+00 -1.2180425155577262e+02 0 0 0
3016 87 2 0.0000000000000000e+00 -4.6354028948104357e+01 1.3164679175988496e+00 -1.3251175135663135e+02 0 0 0
6313 181 4 0.0000000000000000e+00 -1.0171465566437209e+02 1.3144676723464366e+01 -1.3182773516765440e+02 0 0 0
6314 181 4 0.0000000000000000e+00 -9.2473848022709191e+01 8.7818036900392986e+00 -1.3029777005107567e+02 0 0 0
6315 181 4 0.0000000000000000e+00 -8.3477243769859300e+01 3.9980905825897022e+00 -1.2850090506524776e+02 0 0 0
5536 159 4 0.0000000000000000e+00 -6.2161379595807006e+01 9.1910864594973933e+00 -1.2177551408954210e+02 0 0 0
5537 159 4 0.0000000000000000e+00 -5.7649130575519806e+01 1.4592116539258591e+00 -1.2546362869175032e+02 0 0 0
3015 87 2 0.0000000000000000e+00 -4.4841317377799740e+01 1.1322532064200693e+01 -1.2994041935623994e+02 0 0 0
3313 95 2 0.0000000000000000e+00 -1.1223207261286366e+02 2.5014506852127127e+01 -1.2122892122291138e+02 0 0 0
1800 52 2 0.0000000000000000e+00 -1.0162119900952561e+02 2.4872016533625288e+01 -1.2654672524230800e+02 0 0 0
1801 52 2 0.0000000000000000e+00 -9.6375416486386783e+01 1.6469776280685238e+01 -1.2319592089574297e+02 0 0 0
6306 181 4 0.0000000000000000e+00 -8.2982429790473120e+01 2.6171431422898813e+01 -1.2535897505924545e+02 0 0 0
1803 52 1 0.0000000000000000e+00 -8.0315279544717825e+01 1.6081273131889503e+01 -1.2432483658585816e+02 0 0 0
1804 52 2 0.0000000000000000e+00 -7.7037719677825095e+01 1.7599841978974801e+01 -1.3326265784216679e+02 0 0 0
562 17 2 0.0000000000000000e+00 -6.5323896503279187e+01 1.9232550974273643e+01 -1.2822010165630314e+02 0 0 0
561 17 2 0.0000000000000000e+00 -5.6879355714889698e+01 1.6514780075609046e+01 -1.3249371577973068e+02 0 0 0
1759 51 2 0.0000000000000000e+00 -2.0337932121104558e+01 1.9751993247762034e+01 -1.2523453128440111e+02 0 0 0
1799 52 2 0.0000000000000000e+00 -1.0533152939105742e+02 3.0614109302042390e+01 -1.3376811458462689e+02 0 0 0
4433 127 4 0.0000000000000000e+00 -4.9968967871045813e+01 4.0047395625273957e+01 -1.2494858659209349e+02 0 0 0
4434 127 4 0.0000000000000000e+00 -4.8114845809077991e+01 3.1002662160178680e+01 -1.2720659061297410e+02 0 0 0
3013 87 2 0.0000000000000000e+00 -3.7400904895152010e+01 2.8725532369197371e+01 -1.3272247878069754e+02 0 0 0
3012 87 2 0.0000000000000000e+00 -4.0283453228138086e+01 3.7601278577982832e+01 -1.2875805863256139e+02 0 0 0
1760 51 2 0.0000000000000000e+00 -2.0469259176204513e+01 2.9517902690145640e+01 -1.2640185400280718e+02 0 0 0
1761 51 1 0.0000000000000000e+00 -1.5480777999782596e+01 3.7784323320299897e+01 -1.2915110293111312e+02 0 0 0
6238 179 4 0.0000000000000000e+00 -5.3023811361582524e+01 -8.1265515235677825e+01 -1.0893448439307899e+02 0 0 0
3991 115 4 0.0000000000000000e+00 -2.8746266844974532e+01 -9.0189800857825801e+01 -1.0941186419855079e+02 0 0 0
3992 115 4 0.0000000000000000e+00 -3.2286056197315460e+01 -8.0650120007310818e+01 -1.0745507859994761e+02 0 0 0
1367 40 2 0.0000000000000000e+00 -1.2444454544574394e+02 -7.0838594896813859e+01 -1.1115386025473235e+02 0 0 0
1368 40 2 0.0000000000000000e+00 -1.1511241490432596e+02 -7.0198969167377328e+01 -1.0786122238970560e+02 0 0 0
1370 40 2 0.0000000000000000e+00 -9.6523578848257529e+01 -6.8387970264358984e+01 -1.1495479873526239e+02 0 0 0
1369 40 1 0.0000000000000000e+00 -1.0551640473722661e+02 -6.8746981806847401e+01 -1.1095894346839896e+02 0 0 0
6500 186 3 0.0000000000000000e+00 -8.1814664267740014e+01 -7.9878912113858533e+01 -1.1352022044327880e+02 0 0 0
1371 40 2 0.0000000000000000e+00 -8.7398287527140852e+01 -6.8473244057551724e+01 -1.1094850043206458e+02 0 0 0
6499 186 4 0.0000000000000000e+00 -8.9405736356477632e+01 -7.7241835919563314e+01 -1.0746620812730059e+02 0 0 0
1372 40 2 0.0000000000000000e+00 -7.7614349967064669e+01 -6.7032544717151865e+01 -1.1322888384137879e+02 0 0 0
2217 64 2 0.0000000000000000e+00 -6.7172921428393096e+01 -7.7114600255335432e+01 -1.1172419720648705e+02 0 0 0
5434 156 4 0.0000000000000000e+00 -3.6565122737641211e+01 -6.6797785077348124e+01 -1.1653038886926412e+02 0 0 0
5435 156 4 0.0000000000000000e+00 -2.7076524984507628e+01 -6.7528013244614201e+01 -1.1952661694385797e+02 0 0 0
2088 60 2 0.0000000000000000e+00 -7.7603163429427909e+01 -5.3278401135718184e+01 -1.1597220723084308e+02 0 0 0
1373 40 2 0.0000000000000000e+00 -6.7500158182649599e+01 -6.5888783490898618e+01 -1.1102061807068077e+02 0 0 0
5433 156 4 0.0000000000000000e+00 -4.5649004866451158e+01 -6.6029766129109603e+01 -1.2019675438441398e+02 0 0 0
2628 76 2 0.0000000000000000e+00 -1.8598766051910793e+01 -5.5439953909770303e+01 -1.1613480372993351e+02 0 0 0
2629 76 1 0.0000000000000000e+00 -1.8274417717624132e+01 -6.4673676757396365e+01 -1.1224377491210284e+02 0 0 0
2095 60 2 0.0000000000000000e+00 -1.2043639672014341e+02 -4.5680445289212166e+01 -1.1855101047329573e+02 0 0 0
6511 187 4 0.0000000000000000e+00 -9.9421690316268965e+01 -4.0936782995072342e+01 -1.1251786523796758e+02 0 0 0
5544 159 4 0.0000000000000000e+00 -8.4032765505577686e+01 -4.6438734961736728e+01 -1.1004864948407965e+02 0 0 0
2087 60 2 0.0000000000000000e+00 -7.4210983825152496e+01 -4.4120521911231307e+01 -1.1248060890636528e+02 0 0 0
1626 47 2 0.0000000000000000e+00 -6.4796852940666454e+01 -4.3416748230584503e+01 -1.2022339403923712e+02 0 0 0
6327 181 4 0.0000000000000000e+00 -4.9068988767832586e+01 -4.1086211228557005e+01 -1.0811014784087489e+02 0 0 0
2626 76 2 0.0000000000000000e+00 -3.4458994188191021e+01 -4.9407766729705976e+01 -1.1924634684243709e+02 0 0 0
2627 76 2 0.0000000000000000e+00 -2.5311105941287558e+01 -4.8429259310613048e+01 -1.1562581074589299e+02 0 0 0
6232 179 4 0.0000000000000000e+00 -1.5960928048062712e+01 -4.3780038441932810e+01 -1.0703819038150461e+02 0 0 0
6231 179 4 0.0000000000000000e+00 -1.5563657879243753e+01 -4.0935162302896224e+01 -1.1653909496050875e+02 0 0 0
2521 73 2 0.0000000000000000e+00 -1.5283918343840313e+02 -3.0378279323952111e+01 -1.1002348637145610e+02 0 0 0
6296 180 4 0.0000000000000000e+00 -1.2609015696304296e+02 -2.6016818344555737e+01 -1.1961332177224473e+02 0 0 0
2097 60 1 0.0000000000000000e+00 -1.2821188691982300e+02 -3.4045662743700603e+01 -1.1126645143264481e+02 0 0 0
2096 60 2 0.0000000000000000e+00 -1.1869312872110676e+02 -3.6984868354612367e+01 -1.1392729839566748e+02 0 0 0
4749 136 4 0.0000000000000000e+00 -1.0255028455553546e+02 -2.9504672508271579e+01 -1.1481581874807149e+02 0 0 0
5543 159 4 0.0000000000000000e+00 -8.2095938366531854e+01 -3.8098819414927434e+01 -1.1559384446758727e+02 0 0 0
2086 60 2 0.0000000000000000e+00 -7.0238777000778242e+01 -3.5064652232174566e+01 -1.1306298106900950e+02 0 0 0
2085 60 2 0.0000000000000000e+00 -7.7496582263216553e+01 -2.8000006363846708e+01 -1.1085741699069959e+02 0 0 0
6326 181 4 0.0000000000000000e+00 -5.0306487818063040e+01 -3.0841101920316280e+01 -1.1017472479158759e+02 0 0 0
3020 87 2 0.0000000000000000e+00 -4.4732827822220770e+01 -3.4486888072921651e+01 -1.2001491470538519e+02 0 0 0
1616 47 2 0.0000000000000000e+00 -2.7698402224404230e+01 -2.6605027423187202e+01 -1.0716443462011421e+02 0 0 0
2660 76 2 0.0000000000000000e+00 -2.4509269875304181e+01 -3.3736276571729526e+01 -1.1553553976650281e+02 0 0 0
2659 76 2 0.0000000000000000e+00 -1.8812375559866094e+01 -3.0602508095921671e+01 -1.0783437724744608e+02 0 0 0
6295 180 4 0.0000000000000000e+00 -1.2549277772862594e+02 -2.1797128937902318e+01 -1.1071593017238298e+02 0 0 0
4750 136 3 0.0000000000000000e+00 -9.6721680062287007e+01 -2.4263661725486156e+01 -1.0887208566899568e+02 0 0 0
4751 136 4 0.0000000000000000e+00 -1.0193219647398230e+02 -1.5827437981797937e+01 -1.0820972636565764e+02 0 0 0
2083 60 1 0.0000000000000000e+00 -9.2392653207471724e+01 -1.4620430411170807e+01 -1.1272676143146469e+02 0 0 0
2084 60 2 0.0000000000000000e+00 -8.6288888062770894e+01 -2.3263962257695873e+01 -1.1206164792437639e+02 0 0 0
2208 64 2 0.0000000000000000e+00 -7.1757948202181524e+01 -1.7610555297612304e+01 -1.1908858846207903e+02 0 0 0
2209 64 1 0.0000000000000000e+00 -6.3364501851855231e+01 -1.7584941205450800e+01 -1.1352004195011584e+02 0 0 0
2210 64 2 0.0000000000000000e+00 -5.9010327109547752e+01 -2.3740226464815212e+01 -1.0747599981800646e+02 0 0 0
1535 44 2 0.0000000000000000e+00 -5.0357688259563204e+01 -1.3319784429569777e+01 -1.1423367274587677e+02 0 0 0
3019 87 2 0.0000000000000000e+00 -4.3477247121414663e+01 -2.4567221777366331e+01 -1.1832362781823713e+02 0 0 0
1617 47 2 0.0000000000000000e+00 -3.3102366584390793e+01 -1.8836536812655929e+01 -1.1072912301602737e+02 0 0 0
3024 87 2 0.0000000000000000e+00 -1.4054575730287389e+01 -2.4458260712180145e+01 -1.1942007301127339e+02 0 0 0
2550 73 2 0.0000000000000000e+00 -1.3967163019851233e+02 -1.1571447754034983e+01 -1.1603342509063191e+02 0 0 0
2549 73 2 0.0000000000000000e+00 -1.3544181827299951e+02 -7.6996955591064724e+00 -1.0814747920061355e+02 0 0 0
5881 169 4 0.0000000000000000e+00 -1.2375599113848278e+02 1.1324853338114427e+00 -1.1552630790720215e+02 0 0 0
2081 60 2 0.0000000000000000e+00 -1.0866395028044776e+02 -3.7824037943249684e+00 -1.1863202497479317e+02 0 0 0
2082 60 2 0.0000000000000000e+00 -9.9742986558960311e+01 -8.6238288870874573e+00 -1.1583778673418897e+02 0 0 0
6320 181 4 0.0000000000000000e+00 -4.5191735180097368e+01 -5.7926489135835801e+00 -1.1981850275236859e+02 0 0 0
1534 44 2 0.0000000000000000e+00 -5.4050354640471348e+01 -4.5623638157405697e+00 -1.1178909741483858e+02 0 0 0
6321 181 4 0.0000000000000000e+00 -3.7389826809190772e+01 -9.3345977251863876e-01 -1.1556660918589343e+02 0 0 0
6322 181 4 0.0000000000000000e+00 -3.2952900385943707e+01 -6.6168142304864910e+00 -1.0850815752108723e+02 0 0 0
3311 95 2 0.0000000000000000e+00 -1.1299047676910963e+02 1.4394082685108382e+01 -1.1167381077719455e+02 0 0 0
5882 169 4 0.0000000000000000e+00 -1.2069597381367858e+02 5.4767572585144064e+00 -1.0739331313944872e+02 0 0 0
5533 159 4 0.0000000000000000e+00 -8.5896206894328500e+01 5.8455813784985473e+00 -1.1247878421123077e+02 0 0 0
5534 159 3 0.0000000000000000e+00 -7.8708045047225994e+01 1.1795496751675767e+01 -1.1403596780848252e+02 0 0 0
5535 159 4 0.0000000000000000e+00 -7.0179612856454781e+01 7.8867902459451988e+00 -1.1625385888886996e+02 0 0 0
1758 51 2 0.0000000000000000e+00 -1.3900353154999111e+01 1.3992174825363316e+01 -1.1982595117290583e+02 0 0 0
3312 95 2 0.0000000000000000e+00 -1.0825579529887079e+02 1.6473878723550627e+01 -1.1988813977627107e+02 0 0 0
3314 95 2 0.0000000000000000e+00 -1.1663035279921529e+02 2.5738724717633811e+01 -1.1250306609162901e+02 0 0 0
3730 107 4 0.0000000000000000e+00 -1.0190148011016433e+02 1.7024207490028548e+01 -1.1093978578851797e+02 0 0 0
1802 52 2 0.0000000000000000e+00 -8.7932322327947617e+01 1.5990267337397091e+01 -1.1818132308329449e+02 0 0 0
6305 181 4 0.0000000000000000e+00 -8.2173711029607873e+01 2.6921753622407078e+01 -1.1600684045387702e+02 0 0 0
563 17 2 0.0000000000000000e+00 -7.0286843774356385e+01 1.8288304190146651e+01 -1.1946111812505805e+02 0 0 0
6304 181 3 0.0000000000000000e+00 -7.7627132322658170e+01 2.1448226234473445e+01 -1.0908194862995835e+02 0 0 0
564 17 1 0.0000000000000000e+00 -6.7428450431438918e+01 1.7911350164745784e+01 -1.0992525837031259e+02 0 0 0
5133 147 4 0.0000000000000000e+00 -3.3877151055518027e+01 2.1241111277843419e+01 -1.1595521610322633e+02 0 0 0
5132 147 4 0.0000000000000000e+00 -3.8721514217385071e+01 1.8835962350620822e+01 -1.0794640704174367e+02 0 0 0
3306 95 2 0.0000000000000000e+00 -1.4016513282445135e+02 3.9163306406862979e+01 -1.1698542809943021e+02 0 0 0
3307 95 2 0.0000000000000000e+00 -1.3814620844095916e+02 3.1100361893019773e+01 -1.1281286352076567e+02 0 0 0
5134 147 4 0.0000000000000000e+00 -2.7526589055179571e+01 2.9096200951466454e+01 -1.1720368754939570e+02 0 0 0