LAMMPS data file via write_data, version 5 Jun 2019, timestep = 320000000

7000 atoms
4 atom types
7285 bonds
3 bond types
6600 angles
2 angle types

-5.0000000000000000e+02 5.0000000000000000e+02 xlo xhi
-5.0000000000000000e+02 5.0000000000000000e+02 ylo yhi
-5.0000000000000000e+02 5.0000000000000000e+02 zlo zhi

Masses

1 1000
2 1000
3 1000
4 1000

Pair Coeffs # lj/cut

1 0.178 10
2 0.178 10
3 0.178 10
4 0.178 10

Angle Coeffs # cosine

1 2
2 2

Atoms # full

2067 60 2 0.0000000000000000e+00 -1.0946189505453430e+02 2.5776106638134976e+01 -2.0202808353844057e+02 0 0 0
2066 60 2 0.0000000000000000e+00 -1.0074475051869908e+02 2.6271246264190204e+01 -2.0701004714243209e+02 0 0 0
5914 169 4 0.0000000000000000e+00 -1.3469616447954510e+02 1.1237150564745383e+01 -1.9782860218976609e+02 0 0 0
5915 169 4 0.0000000000000000e+00 -1.4109799282374112e+02 1.7332379025173353e+01 -1.9466065782499095e+02 0 0 0
5913 169 4 0.0000000000000000e+00 -1.2614867773114855e+02 7.7950528944392712e+00 -1.9552999278687602e+02 0 0 0
5912 169 3 0.0000000000000000e+00 -1.2615966920242478e+02 9.8944048406199414e+00 -1.8592603594774712e+02 0 0 0
2069 60 1 0.0000000000000000e+00 -1.1632168576514825e+02 1.3616273444874640e+01 -1.8966546571104820e+02 0 0 0
2068 60 2 0.0000000000000000e+00 -1.1560143814092011e+02 2.1827622587400693e+01 -1.9495388736658003e+02 0 0 0
2239 64 2 0.0000000000000000e+00 -3.1217744533350928e+01 -2.6265260155176840e+01 -1.7332710518971516e+02 0 0 0
3013 87 2 0.0000000000000000e+00 -4.4240695075556630e+01 -1.7587810939753794e+01 -1.7258169603495946e+02 0 0 0
2240 64 2 0.0000000000000000e+00 -3.4089033957935804e+01 -2.1283796087754872e+01 -1.8178846519977446e+02 0 0 0
5911 169 4 0.0000000000000000e+00 -1.3276269650147498e+02 1.0515465021992323e+01 -1.7796970834829955e+02 0 0 0
5910 169 4 0.0000000000000000e+00 -1.2944453693864617e+02 1.9149171726843814e+01 -1.7400798835836358e+02 0 0 0
2070 60 2 0.0000000000000000e+00 -1.0825793348699872e+02 1.0702022354002015e+01 -1.8485773891254848e+02 0 0 0
2071 60 2 0.0000000000000000e+00 -1.0592988837833359e+02 9.8550140031063016e+00 -1.7575397773442401e+02 0 0 0
2231 64 2 0.0000000000000000e+00 -5.0025563750351502e+01 -7.7735540779946746e+01 -1.5858851197068984e+02 0 0 0
2232 64 2 0.0000000000000000e+00 -4.4080576821352643e+01 -7.0898044845990469e+01 -1.6162653033057268e+02 0 0 0
2233 64 2 0.0000000000000000e+00 -3.4322878442933636e+01 -6.8648277939802597e+01 -1.6112827090346056e+02 0 0 0
2234 64 2 0.0000000000000000e+00 -2.7154931451035441e+01 -6.2879305250935133e+01 -1.6483705586300852e+02 0 0 0
4440 127 4 0.0000000000000000e+00 -5.4584628292469937e+01 -5.9501826576506716e+01 -1.6117991406694412e+02 0 0 0
4439 127 4 0.0000000000000000e+00 -5.3096975196618395e+01 -4.9692782707433274e+01 -1.6103088390309580e+02 0 0 0
2235 64 2 0.0000000000000000e+00 -2.8009034732763077e+01 -5.3722204055898274e+01 -1.6821713249073235e+02 0 0 0
4438 127 4 0.0000000000000000e+00 -4.8752511826502172e+01 -4.1081020519635594e+01 -1.6310091518407495e+02 0 0 0
2236 64 2 0.0000000000000000e+00 -3.0921984347545997e+01 -4.3746075548653820e+01 -1.6763775568948205e+02 0 0 0
4437 127 4 0.0000000000000000e+00 -4.6178054166251648e+01 -3.1633298309796768e+01 -1.6189117537835361e+02 0 0 0
4436 127 4 0.0000000000000000e+00 -5.0568784031867175e+01 -2.2746242501720566e+01 -1.6270191415194097e+02 0 0 0
2237 64 1 0.0000000000000000e+00 -3.5601918000489114e+01 -3.4892485381578496e+01 -1.6686164930896592e+02 0 0 0
4743 136 3 0.0000000000000000e+00 -2.5686464858581029e+01 -3.4125727364656470e+01 -1.6305349630474308e+02 0 0 0
2238 64 2 0.0000000000000000e+00 -3.6023762458107711e+01 -2.5640369387506102e+01 -1.6452200208548788e+02 0 0 0
4742 136 4 0.0000000000000000e+00 -1.6416697933901489e+01 -3.1703396787241648e+01 -1.6056153369398365e+02 0 0 0
3012 87 2 0.0000000000000000e+00 -5.4073714899093318e+01 -1.8003917945037880e+01 -1.7140891472097951e+02 0 0 0
3011 87 2 0.0000000000000000e+00 -6.1025392774584930e+01 -1.3619345513183696e+01 -1.6612773774786950e+02 0 0 0
4435 127 3 0.0000000000000000e+00 -4.6847769143722601e+01 -1.3559511014277957e+01 -1.6152811430832065e+02 0 0 0
3014 87 1 0.0000000000000000e+00 -3.6857480570152973e+01 -1.3734840107042285e+01 -1.6718710894213771e+02 0 0 0
3015 87 2 0.0000000000000000e+00 -2.9542903554117274e+01 -1.8733225595842121e+01 -1.6309453384117765e+02 0 0 0
2073 60 2 0.0000000000000000e+00 -1.0123239866004171e+02 -1.7477358997057577e+00 -1.6048135486684822e+02 0 0 0
2072 60 2 0.0000000000000000e+00 -1.0146258501451769e+02 5.1218245924311594e+00 -1.6792288312873947e+02 0 0 0
4433 127 4 0.0000000000000000e+00 -5.8430923728414385e+01 -2.9935245093432550e+00 -1.6475094556079742e+02 0 0 0
4432 127 4 0.0000000000000000e+00 -6.5206652123021541e+01 4.4590203651325329e+00 -1.6564574361573844e+02 0 0 0
4434 127 4 0.0000000000000000e+00 -4.8381949830932605e+01 -5.1003675418036156e+00 -1.6637854760314389e+02 0 0 0
4431 127 4 0.0000000000000000e+00 -7.1398651981574901e+01 1.0891676391881987e+01 -1.6151317365528189e+02 0 0 0
5909 169 4 0.0000000000000000e+00 -1.2285789426838822e+02 2.0246235627223353e+01 -1.6631677411812416e+02 0 0 0
2230 64 1 0.0000000000000000e+00 -5.6742252030381408e+01 -8.4866304887477966e+01 -1.5822716534318101e+02 0 0 0
4443 127 4 0.0000000000000000e+00 -6.1362433436943938e+01 -8.2623265301964423e+01 -1.4698000612663637e+02 0 0 0
2229 64 2 0.0000000000000000e+00 -5.1466597511199446e+01 -8.4996086736368895e+01 -1.4969375517351224e+02 0 0 0
4442 127 3 0.0000000000000000e+00 -6.0048927090324113e+01 -7.4789636217531111e+01 -1.5361802320255740e+02 0 0 0
4441 127 4 0.0000000000000000e+00 -5.3613350385825214e+01 -6.7137456383766889e+01 -1.5499438907427586e+02 0 0 0
5426 156 4 0.0000000000000000e+00 -5.4970323762913083e+01 -7.2237723223750933e+01 -1.4546948108669076e+02 0 0 0
5427 156 4 0.0000000000000000e+00 -4.5767819746330503e+01 -7.5664685936747105e+01 -1.4529723874328718e+02 0 0 0
1629 47 2 0.0000000000000000e+00 -4.3492129310051865e+01 -5.2295596662750746e+01 -1.4651452678260850e+02 0 0 0
1624 47 2 0.0000000000000000e+00 -1.7283752726685055e+01 -5.0071478154695441e+01 -1.4753330045075990e+02 0 0 0
4747 136 4 0.0000000000000000e+00 -5.7106330521536570e+01 -3.5717937760633433e+01 -1.4747623087683183e+02 0 0 0
4745 136 4 0.0000000000000000e+00 -4.1198104204121115e+01 -4.3729654845059635e+01 -1.5470554714846571e+02 0 0 0
4746 136 4 0.0000000000000000e+00 -4.9052293011894172e+01 -3.8321364583623200e+01 -1.5255744625687345e+02 0 0 0
4744 136 4 0.0000000000000000e+00 -3.2847996744173599e+01 -3.9930706484033799e+01 -1.5806207510638086e+02 0 0 0
1625 47 2 0.0000000000000000e+00 -2.1510037816964207e+01 -4.1170313064516066e+01 -1.4692920732578207e+02 0 0 0
2078 60 2 0.0000000000000000e+00 -9.1819734522063527e+01 -2.2925875657600447e+01 -1.4501448326105179e+02 0 0 0
1627 47 2 0.0000000000000000e+00 -3.9384223943180508e+01 -3.4668724842063732e+01 -1.4801870135023012e+02 0 0 0
1626 47 2 0.0000000000000000e+00 -2.9748397772013760e+01 -3.4959130806956225e+01 -1.4792352882046657e+02 0 0 0
3016 87 2 0.0000000000000000e+00 -2.7893016980826488e+01 -2.4378044319366481e+01 -1.5521168521555873e+02 0 0 0
3017 87 2 0.0000000000000000e+00 -2.5724290442181594e+01 -2.3639849035934702e+01 -1.4579561458169502e+02 0 0 0
2075 60 2 0.0000000000000000e+00 -1.0637821993207093e+02 -1.7813758380878369e+01 -1.5003308444967578e+02 0 0 0
2074 60 2 0.0000000000000000e+00 -1.0356255238642117e+02 -9.5652835468902975e+00 -1.5490392853468913e+02 0 0 0
5536 159 4 0.0000000000000000e+00 -6.6996853921638731e+01 -1.2337573007921911e+01 -1.5615153325575403e+02 0 0 0
5537 159 4 0.0000000000000000e+00 -6.4635850352243466e+01 -1.7332484447545983e+01 -1.4781587291040137e+02 0 0 0
5538 159 4 0.0000000000000000e+00 -5.5083389294183064e+01 -1.6455018235889177e+01 -1.4632140159536308e+02 0 0 0
5539 159 4 0.0000000000000000e+00 -4.5882882984995071e+01 -1.7930884043456533e+01 -1.4523783390846538e+02 0 0 0
5534 159 3 0.0000000000000000e+00 -8.0355633102022409e+01 1.7596342962694325e-01 -1.5505072962721775e+02 0 0 0
5532 159 4 0.0000000000000000e+00 -8.7297357416800423e+01 2.6370986934193095e+00 -1.4474671885913912e+02 0 0 0
5535 159 4 0.0000000000000000e+00 -7.1870170670960590e+01 -4.2130986781401827e+00 -1.5772685152200532e+02 0 0 0
1803 52 1 0.0000000000000000e+00 -7.2591896646257837e+01 3.6085714518567364e+00 -1.4818305321491053e+02 0 0 0
1804 52 2 0.0000000000000000e+00 -6.4244389805207135e+01 -1.7117482933834651e+00 -1.5097966340100780e+02 0 0 0
5908 169 4 0.0000000000000000e+00 -1.1762544218195394e+02 1.8912266331675706e+01 -1.5773628902036424e+02 0 0 0
6307 181 4 0.0000000000000000e+00 -9.6611786936496145e+01 1.1734810847539649e+01 -1.4483128890406653e+02 0 0 0
5533 159 4 0.0000000000000000e+00 -8.7086611154403442e+01 7.4084059544358158e+00 -1.5333319547759575e+02 0 0 0
6306 181 4 0.0000000000000000e+00 -8.7767651972060960e+01 1.6001591256440118e+01 -1.4766660846761010e+02 0 0 0
6305 181 4 0.0000000000000000e+00 -7.7927356759026338e+01 1.5952286322143868e+01 -1.4602101601630821e+02 0 0 0
6336 182 4 0.0000000000000000e+00 -1.2744757486536086e+02 2.5863472123257996e+01 -1.4862999549070585e+02 0 0 0
5907 169 4 0.0000000000000000e+00 -1.0962844874620724e+02 2.2680374329965737e+01 -1.5297306995886188e+02 0 0 0
5906 169 4 0.0000000000000000e+00 -1.0184900486646056e+02 2.0807025011255934e+01 -1.4823111863001236e+02 0 0 0
4429 127 4 0.0000000000000000e+00 -7.9024230511900555e+01 2.8173111366450229e+01 -1.5340644106374648e+02 0 0 0
4430 127 4 0.0000000000000000e+00 -7.3898660481126427e+01 1.9845576085836615e+01 -1.5637842151552223e+02 0 0 0
3220 92 2 0.0000000000000000e+00 -2.4815165685238796e+01 2.9531475432432241e+01 -1.5468711009372822e+02 0 0 0
4445 127 4 0.0000000000000000e+00 -6.7698020174843748e+01 -9.3849762360945491e+01 -1.3271633123029125e+02 0 0 0
4444 127 4 0.0000000000000000e+00 -6.4261046512758853e+01 -8.7774495400948808e+01 -1.3881248816172115e+02 0 0 0
2228 64 2 0.0000000000000000e+00 -4.5917406114864107e+01 -8.7181706908668303e+01 -1.4165619720144292e+02 0 0 0
2227 64 2 0.0000000000000000e+00 -3.9212219307900796e+01 -8.9515003882017169e+01 -1.3455712364020533e+02 0 0 0
5428 156 4 0.0000000000000000e+00 -4.2737534746818618e+01 -7.5502649723230505e+01 -1.3557907099839417e+02 0 0 0
1632 47 2 0.0000000000000000e+00 -1.8263770188429170e+01 -6.3205749548383821e+01 -1.4295075840923144e+02 0 0 0
5543 159 4 0.0000000000000000e+00 -4.7888942072254821e+01 -5.0423024098424754e+01 -1.3207710123052161e+02 0 0 0
1631 47 2 0.0000000000000000e+00 -2.8124823890733428e+01 -6.2285498906380106e+01 -1.4201469679556033e+02 0 0 0
1630 47 2 0.0000000000000000e+00 -3.7789917904735205e+01 -5.9970728845492005e+01 -1.4330305238911185e+02 0 0 0
1540 44 2 0.0000000000000000e+00 -3.7213541922394590e+01 -5.4520857118119991e+01 -1.3410479251005441e+02 0 0 0
4544 130 4 0.0000000000000000e+00 -1.4329623158910643e+01 -5.5449735931464602e+01 -1.3681428933444474e+02 0 0 0
1628 47 1 0.0000000000000000e+00 -4.1039822629143657e+01 -4.3235843588907571e+01 -1.4368745081071378e+02 0 0 0
5542 159 4 0.0000000000000000e+00 -4.3630178455325265e+01 -4.0681346931996224e+01 -1.3359941816500776e+02 0 0 0
1539 44 2 0.0000000000000000e+00 -2.9841840335646232e+01 -4.8692137789507051e+01 -1.3212267065444365e+02 0 0 0
4545 130 4 0.0000000000000000e+00 -1.9378081087530049e+01 -4.8209620740283107e+01 -1.3242698961655316e+02 0 0 0
4749 136 4 0.0000000000000000e+00 -6.8362115744750227e+01 -2.8117091391836261e+01 -1.3480956548822266e+02 0 0 0
4748 136 4 0.0000000000000000e+00 -6.4800410879952580e+01 -3.0469392518572807e+01 -1.4338018184329201e+02 0 0 0
5540 159 4 0.0000000000000000e+00 -4.2807216490999885e+01 -2.6949970103447647e+01 -1.4143222799334021e+02 0 0 0
5541 159 3 0.0000000000000000e+00 -3.6963263893259722e+01 -3.4871849768166200e+01 -1.3722242400464978e+02 0 0 0
3018 87 2 0.0000000000000000e+00 -2.6045873306590309e+01 -2.8823939378092913e+01 -1.3744529944763673e+02 0 0 0
2076 60 1 0.0000000000000000e+00 -1.1057859786411602e+02 -1.9998551445006601e+01 -1.4120713547212600e+02 0 0 0
6310 181 4 0.0000000000000000e+00 -1.0721713832053382e+02 -8.6705300872534163e+00 -1.3543763598714955e+02 0 0 0
6311 181 3 0.0000000000000000e+00 -1.0669729647730945e+02 -1.7703278824462330e+01 -1.3116131922626161e+02 0 0 0
2077 60 2 0.0000000000000000e+00 -1.0054626822422949e+02 -1.9383875651406505e+01 -1.4074822846570243e+02 0 0 0
2079 60 2 0.0000000000000000e+00 -8.2891377020470628e+01 -1.7334062162304004e+01 -1.4366318323497751e+02 0 0 0
2080 60 2 0.0000000000000000e+00 -7.5954436176068256e+01 -1.3137922210450254e+01 -1.3836169301686050e+02 0 0 0
2081 60 2 0.0000000000000000e+00 -6.7828080986730697e+01 -1.0721927305601644e+01 -1.3322962408921040e+02 0 0 0
6309 181 4 0.0000000000000000e+00 -1.1114484372774554e+02 -1.7532425404677714e+00 -1.4119366503602163e+02 0 0 0
5531 159 4 0.0000000000000000e+00 -8.9285775232318372e+01 8.7523215687511569e-01 -1.3499100841606517e+02 0 0 0
1805 52 2 0.0000000000000000e+00 -5.9436592291728218e+01 3.4432179845978164e+00 -1.4369040755734540e+02 0 0 0
6308 181 4 0.0000000000000000e+00 -1.0502698136599120e+02 6.4377292497726826e+00 -1.4233674074276630e+02 0 0 0
1800 52 2 0.0000000000000000e+00 -9.5287186645203093e+01 1.6537211683433011e+01 -1.3589522049978541e+02 0 0 0
1801 52 2 0.0000000000000000e+00 -8.6454006055276736e+01 1.1464323944044018e+01 -1.3780042220131787e+02 0 0 0
1802 52 2 0.0000000000000000e+00 -7.8770625707428479e+01 7.3423547462093914e+00 -1.4205754208950475e+02 0 0 0
6304 181 3 0.0000000000000000e+00 -7.8524610424379148e+01 1.7583912756518547e+01 -1.3656492531146438e+02 0 0 0
564 17 1 0.0000000000000000e+00 -6.7917420472158469e+01 1.9489053369125013e+01 -1.3194231527277748e+02 0 0 0
1806 52 2 0.0000000000000000e+00 -5.7717810080033892e+01 1.3425489428378981e+01 -1.4255755348002120e+02 0 0 0
6337 182 4 0.0000000000000000e+00 -1.2496845937145019e+02 3.0963825453495037e+01 -1.3975300922426524e+02 0 0 0
5905 169 3 0.0000000000000000e+00 -9.3573170199471633e+01 2.3769288821092957e+01 -1.4343710269918654e+02 0 0 0
577 17 2 0.0000000000000000e+00 -9.4608265276395755e+01 2.8774529228710794e+01 -1.3392190215659753e+02 0 0 0
1799 52 2 0.0000000000000000e+00 -1.0334612675960535e+02 2.2102937705134092e+01 -1.3286829441102282e+02 0 0 0
5904 169 4 0.0000000000000000e+00 -8.7410945872487588e+01 2.2468786396142715e+01 -1.3571526336263787e+02 0 0 0
1809 52 2 0.0000000000000000e+00 -7.3207160700250213e+01 3.1235072914255603e+01 -1.3945675958356941e+02 0 0 0
1807 52 2 0.0000000000000000e+00 -5.5162343377563126e+01 2.3719515703962031e+01 -1.4256641747959438e+02 0 0 0
1808 52 2 0.0000000000000000e+00 -6.3369057168037372e+01 2.8754887744680232e+01 -1.4066006419187272e+02 0 0 0
563 17 2 0.0000000000000000e+00 -5.8411888777765299e+01 2.0326873720656007e+01 -1.3168609843603954e+02 0 0 0
562 17 2 0.0000000000000000e+00 -4.8985163769119687e+01 2.3099284371459223e+01 -1.3441449657590431e+02 0 0 0
561 17 2 0.0000000000000000e+00 -3.8527587883087527e+01 2.3955738902361063e+01 -1.3685989280664961e+02 0 0 0
1372 40 2 0.0000000000000000e+00 -3.5807707738216529e+01 -1.0381500820239826e+02 -1.1991085062204877e+02 0 0 0
1373 40 2 0.0000000000000000e+00 -4.3589837295541798e+01 -9.8149468391657294e+01 -1.2305486232477261e+02 0 0 0
2225 64 2 0.0000000000000000e+00 -2.6601933083132977e+01 -9.4366752407323673e+01 -1.2113434859696891e+02 0 0 0
2226 64 2 0.0000000000000000e+00 -3.1908061214959858e+01 -9.0726420212852730e+01 -1.2798273699355560e+02 0 0 0
2091 60 2 0.0000000000000000e+00 -5.0434360918075157e+01 -7.8640169601993222e+01 -1.2272688816779782e+02 0 0 0
2090 60 1 0.0000000000000000e+00 -4.0029501802757295e+01 -7.8787792856453947e+01 -1.2166418091223845e+02 0 0 0
6334 181 4 0.0000000000000000e+00 -1.4581778565376036e+01 -7.8058513885673563e+01 -1.2129371321326437e+02 0 0 0
6511 187 4 0.0000000000000000e+00 -1.0390475472834066e+02 -7.1426090835919979e+01 -1.2588932680942979e+02 0 0 0
6512 187 4 0.0000000000000000e+00 -9.8996424177382039e+01 -6.3315684104849602e+01 -1.2251916699681861e+02 0 0 0
2093 60 2 0.0000000000000000e+00 -6.8449164029665837e+01 -7.1794631983477032e+01 -1.2079702370245130e+02 0 0 0
2092 60 2 0.0000000000000000e+00 -5.8949189764423942e+01 -7.3993680246181029e+01 -1.2203057634833553e+02 0 0 0
5429 156 3 0.0000000000000000e+00 -3.5403814882861496e+01 -7.1477394666908239e+01 -1.2927076410560321e+02 0 0 0
5430 156 4 0.0000000000000000e+00 -2.5464425353211521e+01 -6.8794478771210464e+01 -1.2918605866691527e+02 0 0 0
2089 60 2 0.0000000000000000e+00 -3.4592788587977040e+01 -7.1327456634233940e+01 -1.1819450918046356e+02 0 0 0
5431 156 4 0.0000000000000000e+00 -1.5461997366425576e+01 -6.6293336892111455e+01 -1.2732959458871642e+02 0 0 0
2550 73 2 0.0000000000000000e+00 -1.3431982384923808e+02 -5.4524101743706602e+01 -1.1918521918191743e+02 0 0 0
6513 187 4 0.0000000000000000e+00 -9.2385284442134406e+01 -5.6446083158280423e+01 -1.1834126366279844e+02 0 0 0
5545 159 4 0.0000000000000000e+00 -6.2828716523194551e+01 -5.8494280701516658e+01 -1.2141339789836606e+02 0 0 0
5544 159 4 0.0000000000000000e+00 -5.5299373119422825e+01 -5.4779358302758467e+01 -1.2697115603786133e+02 0 0 0
2551 73 2 0.0000000000000000e+00 -1.3661883372823718e+02 -4.5043257488422945e+01 -1.2114585429396968e+02 0 0 0
2552 73 1 0.0000000000000000e+00 -1.3266288074975364e+02 -3.5929327451533183e+01 -1.2404645870352832e+02 0 0 0
2554 73 2 0.0000000000000000e+00 -1.1607620916675319e+02 -3.8207190362505138e+01 -1.2567553535287152e+02 0 0 0
2555 73 2 0.0000000000000000e+00 -1.0812875794718710e+02 -4.3891765220148862e+01 -1.2751692935445149e+02 0 0 0
2084 60 2 0.0000000000000000e+00 -5.7989602069787708e+01 -3.6620301125582088e+01 -1.2551966721711673e+02 0 0 0
2085 60 2 0.0000000000000000e+00 -4.9286054548823685e+01 -4.0301635252902827e+01 -1.2248722659582924e+02 0 0 0
2086 60 2 0.0000000000000000e+00 -4.2225031615829913e+01 -4.6907290930207637e+01 -1.2000229336716522e+02 0 0 0
1538 44 2 0.0000000000000000e+00 -2.9718466153032942e+01 -3.9561526330484419e+01 -1.2731771266252191e+02 0 0 0
4546 130 4 0.0000000000000000e+00 -2.0596590478124789e+01 -4.5586557476489027e+01 -1.2359975270848278e+02 0 0 0
3020 87 2 0.0000000000000000e+00 -1.2908457512981629e+01 -3.7141228743383728e+01 -1.2857024442431796e+02 0 0 0
6299 180 4 0.0000000000000000e+00 -1.6037266825779730e+02 -3.1325259017399876e+01 -1.2316696800787517e+02 0 0 0
6298 180 4 0.0000000000000000e+00 -1.5077347512357318e+02 -2.8629751699125002e+01 -1.2394781047188231e+02 0 0 0
6297 180 3 0.0000000000000000e+00 -1.4079837912556124e+02 -2.9309028748017607e+01 -1.2228704066700880e+02 0 0 0
2553 73 2 0.0000000000000000e+00 -1.2452622250604161e+02 -3.3915884248931448e+01 -1.2936286128363133e+02 0 0 0
6296 180 4 0.0000000000000000e+00 -1.3204572935597488e+02 -2.3784142281440790e+01 -1.1999334409616924e+02 0 0 0
6312 181 4 0.0000000000000000e+00 -1.0818151070836601e+02 -2.2578338270881332e+01 -1.2228086419181000e+02 0 0 0
4751 136 4 0.0000000000000000e+00 -8.0583747827511203e+01 -2.8539609526210295e+01 -1.2323770858233074e+02 0 0 0
4752 136 4 0.0000000000000000e+00 -8.9858247302374394e+01 -2.8218349634720475e+01 -1.1936064178051735e+02 0 0 0
4750 136 3 0.0000000000000000e+00 -7.1108696918709484e+01 -3.0834913081054982e+01 -1.2518435341791620e+02 0 0 0
2083 60 1 0.0000000000000000e+00 -6.0592527342752476e+01 -2.7375220817177826e+01 -1.2563879915580064e+02 0 0 0
1537 44 1 0.0000000000000000e+00 -2.7887145758324927e+01 -3.4089942635067047e+01 -1.1935364434569203e+02 0 0 0
3019 87 2 0.0000000000000000e+00 -2.1086904787743954e+01 -3.2135051661294987e+01 -1.2924072872265805e+02 0 0 0
6313 181 4 0.0000000000000000e+00 -9.8998027590183241e+01 -1.9358759947306226e+01 -1.1918646423951306e+02 0 0 0
6314 181 4 0.0000000000000000e+00 -9.3057768590813765e+01 -1.9609915852261086e+01 -1.2779830421405718e+02 0 0 0
6315 181 4 0.0000000000000000e+00 -8.3242105612774239e+01 -1.7570624782063167e+01 -1.2688199841224640e+02 0 0 0
6316 181 4 0.0000000000000000e+00 -7.8663739226074398e+01 -1.8088975168764325e+01 -1.1782537058251013e+02 0 0 0
2082 60 2 0.0000000000000000e+00 -6.3256037106615999e+01 -1.8632677141323388e+01 -1.3087443644650168e+02 0 0 0
2206 64 2 0.0000000000000000e+00 -4.4858003943749232e+01 -1.4838281441803803e+01 -1.2507867377556886e+02 0 0 0
3313 95 2 0.0000000000000000e+00 -8.5414084811521178e+01 1.2018639410109093e+00 -1.2049723954755551e+02 0 0 0
6302 181 4 0.0000000000000000e+00 -7.3844484009069632e+01 2.6703113499416680e+00 -1.2762533070276288e+02 0 0 0
6301 181 4 0.0000000000000000e+00 -7.5811284857205379e+01 -7.1009616934399373e+00 -1.2901763651253981e+02 0 0 0
1533 44 2 0.0000000000000000e+00 -1.4097289211154958e+01 -5.0938596258120876e+00 -1.1987592865657804e+02 0 0 0
3310 95 2 0.0000000000000000e+00 -1.0880928039556160e+02 1.8592759001085224e+01 -1.1795221044327300e+02 0 0 0
3312 95 2 0.0000000000000000e+00 -9.3924028007684839e+01 6.2157205050011521e+00 -1.2231943861089530e+02 0 0 0
3311 95 2 0.0000000000000000e+00 -1.0183312934335767e+02 1.1635974825291964e+01 -1.1836216734887083e+02 0 0 0
5903 169 4 0.0000000000000000e+00 -8.4903822359396628e+01 1.6392520559934582e+01 -1.2861301126105491e+02 0 0 0
5902 169 4 0.0000000000000000e+00 -8.3371108090692587e+01 1.1694775352188357e+01 -1.1972225649459109e+02 0 0 0
6303 181 4 0.0000000000000000e+00 -7.5423044858142660e+01 1.3260485859640905e+01 -1.2816733616774124e+02 0 0 0
6339 182 3 0.0000000000000000e+00 -1.1547426959495301e+02 3.0335724926156566e+01 -1.3035473389075477e+02 0 0 0
1798 52 2 0.0000000000000000e+00 -1.0540765567549641e+02 2.7955691897384359e+01 -1.2464768481452013e+02 0 0 0
576 17 2 0.0000000000000000e+00 -9.5948620169231575e+01 2.6620707772337528e+01 -1.2431511606147056e+02 0 0 0
566 17 2 0.0000000000000000e+00 -8.2109817594101017e+01 3.2288325693075080e+01 -1.3058574574302236e+02 0 0 0
565 17 2 0.0000000000000000e+00 -7.5545693634565765e+01 2.4949606703579722e+01 -1.2919524776771539e+02 0 0 0
5133 147 4 0.0000000000000000e+00 -2.2443865960450488e+01 2.8440973265972449e+01 -1.1862221884279550e+02 0 0 0
5134 147 4 0.0000000000000000e+00 -1.9426391656552436e+01 3.2486132939847273e+01 -1.2718866149178827e+02 0 0 0
1371 40 2 0.0000000000000000e+00 -3.2239951682421008e+01 -1.0658274162791359e+02 -1.1113468860332040e+02 0 0 0
6503 186 4 0.0000000000000000e+00 -5.3507095650570903e+01 -9.0066646108644804e+01 -1.1125464223794053e+02 0 0 0
1374 40 2 0.0000000000000000e+00 -3.8873647871866112e+01 -9.1706628962192411e+01 -1.1617697185379292e+02 0 0 0
2224 64 2 0.0000000000000000e+00 -2.6584513042087377e+01 -9.0420106638263476e+01 -1.1145810068663003e+02 0 0 0
2222 64 2 0.0000000000000000e+00 -3.7625271721413085e+01 -9.7971499973264628e+01 -1.0504560475851940e+02 0 0 0
6501 186 4 0.0000000000000000e+00 -6.5077281844669372e+01 -8.0145177459164216e+01 -1.0435052142594256e+02 0 0 0
6502 186 4 0.0000000000000000e+00 -6.2746184151029603e+01 -8.6152000961423226e+01 -1.1224520748367908e+02 0 0 0
1375 40 2 0.0000000000000000e+00 -3.9960961709014221e+01 -8.2752074785740106e+01 -1.1245027300210820e+02 0 0 0
2223 64 1 0.0000000000000000e+00 -3.4445798876665776e+01 -8.8671688735049003e+01 -1.0628322018628269e+02 0 0 0
6332 181 3 0.0000000000000000e+00 -2.7378358629048154e+01 -7.6315796711324779e+01 -1.0697111751323546e+02 0 0 0
6333 181 4 0.0000000000000000e+00 -2.3380450358916818e+01 -7.8037636685400855e+01 -1.1615686751435439e+02 0 0 0
2094 60 2 0.0000000000000000e+00 -7.6107502347228774e+01 -6.7224863642100459e+01 -1.1600521698272446e+02 0 0 0
2213 64 2 0.0000000000000000e+00 -4.6795359191066062e+01 -6.6403432693636375e+01 -1.0585620572443528e+02 0 0 0
1376 40 1 0.0000000000000000e+00 -3.7472957102848000e+01 -7.3369937297194909e+01 -1.0878710803610934e+02 0 0 0
2088 60 2 0.0000000000000000e+00 -2.9976862698087867e+01 -6.2519372269332912e+01 -1.1661802721921045e+02 0 0 0
2549 73 2 0.0000000000000000e+00 -1.2839584302226700e+02 -6.1942160015896306e+01 -1.1485679097911377e+02 0 0 0
2548 73 2 0.0000000000000000e+00 -1.2308249824206294e+02 -5.8892878865744500e+01 -1.0624384612789810e+02 0 0 0
2097 60 1 0.0000000000000000e+00 -9.3513686954365610e+01 -5.2955049237714228e+01 -1.0707943779151773e+02 0 0 0
2096 60 2 0.0000000000000000e+00 -8.8993325788951381e+01 -6.1259788176601305e+01 -1.0787290020252895e+02 0 0 0
2095 60 2 0.0000000000000000e+00 -8.0283574711329663e+01 -5.8920672310446399e+01 -1.1220686514120442e+02 0 0 0
6514 187 3 0.0000000000000000e+00 -8.6374597115049752e+01 -4.9626988686482193e+01 -1.1446347865046079e+02 0 0 0
5546 159 4 0.0000000000000000e+00 -6.4510982915590688e+01 -5.8301923358579735e+01 -1.1135435255906403e+02 0 0 0
2211 64 2 0.0000000000000000e+00 -5.4450364975830908e+01 -5.1315108453129085e+01 -1.1663861861336778e+02 0 0 0
5547 159 4 0.0000000000000000e+00 -6.0730111361920201e+01 -5.0509751969803951e+01 -1.0602542888685612e+02 0 0 0
2212 64 2 0.0000000000000000e+00 -5.1096517350524437e+01 -5.9487511625246796e+01 -1.1208315148026371e+02 0 0 0
2087 60 2 0.0000000000000000e+00 -3.5721591006249902e+01 -5.4047337920162441e+01 -1.1626509679989125e+02 0 0 0
6327 181 4 0.0000000000000000e+00 -2.3688549110698787e+01 -5.5139264141437693e+01 -1.1230503931742538e+02 0 0 0
6328 181 4 0.0000000000000000e+00 -1.8429313791881373e+01 -5.9842608524529368e+01 -1.0509256254088453e+02 0 0 0
2547 73 2 0.0000000000000000e+00 -1.2165090935164878e+02 -4.8682093534399904e+01 -1.0481313890579504e+02 0 0 0
2098 60 2 0.0000000000000000e+00 -9.0530065777003486e+01 -4.3018901020056575e+01 -1.0775839231565691e+02 0 0 0
6515 187 4 0.0000000000000000e+00 -8.0100323212789633e+01 -4.2270263461114773e+01 -1.1145077581433200e+02 0 0 0
6516 187 4 0.0000000000000000e+00 -7.3668642703761080e+01 -3.6365903336981049e+01 -1.0690642249949150e+02 0 0 0
2210 64 2 0.0000000000000000e+00 -5.9403122050244512e+01 -4.3477202306989412e+01 -1.1586890973716297e+02 0 0 0
6324 181 4 0.0000000000000000e+00 -4.4557219348175231e+01 -3.8413376214330853e+01 -1.0919512552538818e+02 0 0 0
6326 181 4 0.0000000000000000e+00 -2.7652341210072255e+01 -4.5424930525121169e+01 -1.1119783967746685e+02 0 0 0
6325 181 3 0.0000000000000000e+00 -3.5980780315835901e+01 -4.0632524396664124e+01 -1.1436852548453959e+02 0 0 0
4547 130 3 0.0000000000000000e+00 -1.8276019899345808e+01 -4.0572478151236815e+01 -1.1515244899897741e+02 0 0 0
6300 180 4 0.0000000000000000e+00 -1.6789693015929512e+02 -2.8714229206479466e+01 -1.1721824682858674e+02 0 0 0
1717 50 2 0.0000000000000000e+00 -1.3429492520162506e+02 -2.9264135829742827e+01 -1.0816311855916427e+02 0 0 0
1716 50 2 0.0000000000000000e+00 -1.2502485437924921e+02 -3.2206107265792475e+01 -1.0759908040297439e+02 0 0 0
4753 136 4 0.0000000000000000e+00 -9.7550976744135738e+01 -3.2696111034743375e+01 -1.1563003261207096e+02 0 0 0
4754 136 4 0.0000000000000000e+00 -1.0385570225552750e+02 -2.6840231279599585e+01 -1.1041144331477638e+02 0 0 0
2100 60 2 0.0000000000000000e+00 -8.3792216188892269e+01 -2.3483472707559223e+01 -1.0676685655864007e+02 0 0 0
2099 60 2 0.0000000000000000e+00 -8.6003551424430952e+01 -3.3811314816448380e+01 -1.0605979371473842e+02 0 0 0
6317 181 4 0.0000000000000000e+00 -7.1393313890022284e+01 -2.1908430915528029e+01 -1.1157164567933933e+02 0 0 0
2209 64 1 0.0000000000000000e+00 -5.6509234576075499e+01 -3.4405214011725477e+01 -1.1223844895605015e+02 0 0 0
6318 181 3 0.0000000000000000e+00 -6.2631874224752330e+01 -2.5663884291457261e+01 -1.0781244512552846e+02 0 0 0
2208 64 2 0.0000000000000000e+00 -5.3249302626038357e+01 -2.5384391917408170e+01 -1.1225150276346716e+02 0 0 0
5774 165 4 0.0000000000000000e+00 -4.2577836755099668e+01 -2.6040398770928970e+01 -1.0826948217736168e+02 0 0 0
1536 44 2 0.0000000000000000e+00 -2.9241745707672738e+01 -2.5464266331753350e+01 -1.1417242470177368e+02 0 0 0
1718 50 2 0.0000000000000000e+00 -1.3757613966990652e+02 -2.0967561072358137e+01 -1.0441927179755247e+02 0 0 0
6295 180 4 0.0000000000000000e+00 -1.2469512370551773e+02 -1.8224327146361080e+01 -1.1720539451944953e+02 0 0 0
6294 180 4 0.0000000000000000e+00 -1.2718864876241001e+02 -8.8538305485968163e+00 -1.1310676542750511e+02 0 0 0
5881 169 4 0.0000000000000000e+00 -1.1047068143886716e+02 -1.0417013271337712e+01 -1.0578950189144459e+02 0 0 0
2913 84 2 0.0000000000000000e+00 -6.7857393778265163e+01 -1.4750170325221809e+01 -1.0388516684758001e+02 0 0 0
5775 165 4 0.0000000000000000e+00 -4.0397921382891120e+01 -1.8739292561002916e+01 -1.1587775194850784e+02 0 0 0
2207 64 2 0.0000000000000000e+00 -4.9157620649591067e+01 -1.6593310578357077e+01 -1.1553969219502532e+02 0 0 0
1535 44 2 0.0000000000000000e+00 -2.9109404186743088e+01 -1.6041984233934958e+01 -1.1647904068107910e+02 0 0 0
1534 44 2 0.0000000000000000e+00 -2.0327450689102026e+01 -1.1480390497147477e+01 -1.1476058102808526e+02 0 0 0
6293 180 4 0.0000000000000000e+00 -1.2726403410685835e+02 -3.4036936409637639e+00 -1.0503175978798292e+02 0 0 0
3315 95 1 0.0000000000000000e+00 -9.6209274563891668e+01 3.4352290779673544e+00 -1.0512700006780994e+02 0 0 0
3314 95 2 0.0000000000000000e+00 -9.1308927909535669e+01 -1.5179751225451279e+00 -1.1293933202971810e+02 0 0 0
5130 147 4 0.0000000000000000e+00 -3.1635310577861507e+01 4.7681381373659386e+00 -1.1379787478747141e+02 0 0 0
5129 147 4 0.0000000000000000e+00 -2.9579579136943899e+01 -2.9942080263592108e+00 -1.0819174676772992e+02 0 0 0
6292 180 4 0.0000000000000000e+00 -1.2594611172649510e+02 7.3479293255059899e+00 -1.0649908167681981e+02 0 0 0
6291 180 4 0.0000000000000000e+00 -1.2724878651225076e+02 1.7151764727021163e+01 -1.0528641845761672e+02 0 0 0
3316 95 2 0.0000000000000000e+00 -9.8867781279744676e+01 1.3348248430630992e+01 -1.0445647436985871e+02 0 0 0
5901 169 4 0.0000000000000000e+00 -8.5051360538922367e+01 1.7101102106962887e+01 -1.1167779497367299e+02 0 0 0
5899 169 4 0.0000000000000000e+00 -6.9678939254681893e+01 1.2262414052616194e+01 -1.1180447447371075e+02 0 0 0
5900 169 4 0.0000000000000000e+00 -7.6627590316602010e+01 1.7428280766638686e+01 -1.0686608113510970e+02 0 0 0