LAMMPS data file via write_data, version 5 Jun 2019, timestep = 350000000

7000 atoms
4 atom types
7285 bonds
3 bond types
6600 angles
2 angle types

-5.0000000000000000e+02 5.0000000000000000e+02 xlo xhi
-5.0000000000000000e+02 5.0000000000000000e+02 ylo yhi
-5.0000000000000000e+02 5.0000000000000000e+02 zlo zhi

Masses

1 1000
2 1000
3 1000
4 1000

Pair Coeffs # lj/cut

1 0.178 10
2 0.178 10
3 0.178 10
4 0.178 10

Angle Coeffs # cosine

1 2
2 2

Atoms # full

4445 127 4 0.0000000000000000e+00 -4.0753786636213214e+01 -2.0694535977041692e+01 -2.0203112948119283e+02 0 0 0
4443 127 4 0.0000000000000000e+00 -4.7923372011285288e+01 -2.4396007276010878e+00 -2.0181008271801250e+02 0 0 0
2231 64 2 0.0000000000000000e+00 -6.0125611400842082e+01 1.5088234547368026e+01 -2.0277760040817574e+02 0 0 0
4444 127 4 0.0000000000000000e+00 -4.4499788191218812e+01 -1.2166409044691187e+01 -2.0144068090475565e+02 0 0 0
2229 64 2 0.0000000000000000e+00 -6.6788568767439685e+01 4.1365391068973878e+00 -1.8879749363603725e+02 0 0 0
2230 64 1 0.0000000000000000e+00 -6.2231040915031024e+01 7.3032488311963544e+00 -1.9689761603105370e+02 0 0 0
4442 127 3 0.0000000000000000e+00 -5.1115923259777468e+01 6.4959633546943705e+00 -1.9825767319892847e+02 0 0 0
4441 127 4 0.0000000000000000e+00 -5.2220657368790690e+01 7.6668801095888144e+00 -1.8798679859909652e+02 0 0 0
2232 64 2 0.0000000000000000e+00 -6.5368260542073088e+01 2.2687062676948088e+01 -1.9902131033355815e+02 0 0 0
2233 64 2 0.0000000000000000e+00 -6.5539567473099723e+01 2.5832166991498156e+01 -1.8943169416121182e+02 0 0 0
2226 64 2 0.0000000000000000e+00 -7.4369679986063645e+01 -2.1684932965222462e+01 -1.7643120889543923e+02 0 0 0
2227 64 2 0.0000000000000000e+00 -7.4837547856847792e+01 -1.2523661029345563e+01 -1.8089926748764611e+02 0 0 0
2228 64 2 0.0000000000000000e+00 -7.2521370482811733e+01 -4.5242705871015501e+00 -1.8661901667542773e+02 0 0 0
4731 136 4 0.0000000000000000e+00 -1.5913951046735059e+01 -9.2831880564632518e-01 -1.8068841773953807e+02 0 0 0
4440 127 4 0.0000000000000000e+00 -5.5325354906585090e+01 1.0672337551436314e+01 -1.7871919950346938e+02 0 0 0
2234 64 2 0.0000000000000000e+00 -6.8592430705663389e+01 2.7184521626405527e+01 -1.8003970700185195e+02 0 0 0
2224 64 2 0.0000000000000000e+00 -7.3071900849223141e+01 -3.7739464084857993e+01 -1.6638414804453473e+02 0 0 0
2225 64 2 0.0000000000000000e+00 -7.6386558316918766e+01 -2.9852636613858252e+01 -1.7099070662749162e+02 0 0 0
2223 64 1 0.0000000000000000e+00 -6.5621232616573764e+01 -3.3065667425265978e+01 -1.6096211474802931e+02 0 0 0
5427 156 4 0.0000000000000000e+00 -3.0603974549151395e+01 -2.4475657678813892e+01 -1.6503565178103136e+02 0 0 0
6510 186 4 0.0000000000000000e+00 -4.1824058951901378e+01 -3.0309103761625700e+01 -1.6236588852744413e+02 0 0 0
5915 169 4 0.0000000000000000e+00 -1.1735871504225547e+02 -1.5076061098912326e+01 -1.6299393241057393e+02 0 0 0
5426 156 4 0.0000000000000000e+00 -3.1483023383098857e+01 -1.9938479333538286e+01 -1.7423716601865797e+02 0 0 0
4733 136 4 0.0000000000000000e+00 -2.6090602513355233e+01 -5.1868516386689461e+00 -1.6481901882052551e+02 0 0 0
4732 136 4 0.0000000000000000e+00 -2.0947998879121641e+01 -4.0668227474364995e+00 -1.7287765633558567e+02 0 0 0
2237 64 1 0.0000000000000000e+00 -5.5976693557517194e+01 1.9454380344063658e+01 -1.6116479767773077e+02 0 0 0
4439 127 4 0.0000000000000000e+00 -5.1756867626700064e+01 1.6878417724566276e+01 -1.7068302480109637e+02 0 0 0
6306 181 4 0.0000000000000000e+00 -9.0865602346591885e+01 3.4782145599780115e+01 -1.6476863700896422e+02 0 0 0
2235 64 2 0.0000000000000000e+00 -6.9255178801999818e+01 2.8351796253932623e+01 -1.7051187436891595e+02 0 0 0
2236 64 2 0.0000000000000000e+00 -6.3885596315619338e+01 2.5231198488679922e+01 -1.6190860983644976e+02 0 0 0
4437 127 4 0.0000000000000000e+00 -5.4683414261749419e+01 3.1606738051543164e+01 -1.6417051957829005e+02 0 0 0
4438 127 4 0.0000000000000000e+00 -5.3914059809135125e+01 2.6559244256308038e+01 -1.7236095398016062e+02 0 0 0
6505 186 4 0.0000000000000000e+00 -7.0542038217574074e+01 -5.2724468650036513e+01 -1.4979319642080557e+02 0 0 0
2220 64 2 0.0000000000000000e+00 -5.7170819397518116e+01 -5.3018102577503946e+01 -1.4933258838914821e+02 0 0 0
6506 186 4 0.0000000000000000e+00 -6.6934761414736869e+01 -4.3559567681405525e+01 -1.5236136017518325e+02 0 0 0
6507 186 3 0.0000000000000000e+00 -6.3179702899358048e+01 -3.4978810191276821e+01 -1.5012380246992356e+02 0 0 0
2222 64 2 0.0000000000000000e+00 -5.6559979395273388e+01 -3.7661218901482385e+01 -1.6030556829847069e+02 0 0 0
2221 64 2 0.0000000000000000e+00 -5.3330024828010949e+01 -4.4701939857739880e+01 -1.5389330336142328e+02 0 0 0
5429 156 3 0.0000000000000000e+00 -2.7194124132809275e+01 -3.5357837461702658e+01 -1.4948084804844157e+02 0 0 0
6508 186 4 0.0000000000000000e+00 -5.6417393548874962e+01 -2.8544199560488359e+01 -1.5247436756828353e+02 0 0 0
6509 186 4 0.0000000000000000e+00 -5.0206569809071908e+01 -2.5628948981328740e+01 -1.5939785322435839e+02 0 0 0
5428 156 4 0.0000000000000000e+00 -3.2185281213006093e+01 -3.0804583384312277e+01 -1.5625526914472226e+02 0 0 0
5914 169 4 0.0000000000000000e+00 -1.1765576403698746e+02 -8.4020999113318702e+00 -1.5576604628963824e+02 0 0 0
6512 187 4 0.0000000000000000e+00 -8.2345331448067796e+01 -1.3377525767307297e+01 -1.5158418028104120e+02 0 0 0
6511 187 4 0.0000000000000000e+00 -7.4210439171041429e+01 -8.7046341587754643e+00 -1.5552342416714490e+02 0 0 0
1630 47 2 0.0000000000000000e+00 -4.0364564254625506e+01 -1.6455028214131019e+01 -1.5098010245334905e+02 0 0 0
1631 47 2 0.0000000000000000e+00 -3.2390635835698099e+01 -1.7931858797425548e+01 -1.5722864202373728e+02 0 0 0
1632 47 2 0.0000000000000000e+00 -2.2774877684538449e+01 -1.8068889287414475e+01 -1.5995749437129265e+02 0 0 0
5913 169 4 0.0000000000000000e+00 -1.1390164901257413e+02 1.0310728448669739e+00 -1.5482421283879063e+02 0 0 0
4744 136 4 0.0000000000000000e+00 -6.4840444491113004e+01 2.9404894594465687e+00 -1.5136348560164342e+02 0 0 0
4734 136 4 0.0000000000000000e+00 -2.3608114985702088e+01 -5.1442603974862013e+00 -1.5443833807392804e+02 0 0 0
5912 169 3 0.0000000000000000e+00 -1.1027237840574662e+02 9.5053865469104828e+00 -1.5512894459634876e+02 0 0 0
5911 169 4 0.0000000000000000e+00 -1.0695601300622957e+02 1.8956445418827350e+01 -1.5339706484313504e+02 0 0 0
6308 181 4 0.0000000000000000e+00 -8.1473472748194737e+01 2.0863295781258905e+01 -1.5314423781304561e+02 0 0 0
6309 181 4 0.0000000000000000e+00 -8.0128381796190865e+01 1.2001201965061600e+01 -1.4895267020616342e+02 0 0 0
4743 136 3 0.0000000000000000e+00 -5.9345445155476156e+01 1.0066616320467981e+01 -1.5611242434238247e+02 0 0 0
4742 136 4 0.0000000000000000e+00 -5.0170870841324380e+01 1.0336158328490173e+01 -1.5933606974433445e+02 0 0 0
4740 136 4 0.0000000000000000e+00 -3.2562509862807175e+01 7.4878800198964965e+00 -1.5681271143471213e+02 0 0 0
4741 136 4 0.0000000000000000e+00 -4.0549865313612145e+01 1.1008327363267146e+01 -1.6024642835736401e+02 0 0 0
1624 47 2 0.0000000000000000e+00 -3.6819694270628865e+01 1.2475081358115807e+01 -1.4878866555873793e+02 0 0 0
4739 136 4 0.0000000000000000e+00 -2.4019570588622191e+01 1.2285323747674905e+01 -1.5943197993666243e+02 0 0 0
5910 169 4 0.0000000000000000e+00 -1.1074246744653625e+02 2.7669399209819222e+01 -1.5466934068464789e+02 0 0 0
5909 169 4 0.0000000000000000e+00 -1.1022713669159461e+02 3.4225950920235142e+01 -1.4744381944337093e+02 0 0 0
6307 181 4 0.0000000000000000e+00 -8.4855479781519193e+01 2.7920701850888442e+01 -1.5934441134911313e+02 0 0 0
4436 127 4 0.0000000000000000e+00 -5.6742916832452266e+01 3.4759636907097246e+01 -1.5505409238550456e+02 0 0 0
2238 64 2 0.0000000000000000e+00 -4.8554189205146187e+01 2.1197270988583472e+01 -1.5549143326517142e+02 0 0 0
2239 64 2 0.0000000000000000e+00 -4.3410243305486127e+01 2.5084706836126323e+01 -1.4902552822120288e+02 0 0 0
6503 186 4 0.0000000000000000e+00 -7.6293221750817665e+01 -6.4719376217506280e+01 -1.3504064725952227e+02 0 0 0
2218 64 2 0.0000000000000000e+00 -5.6294292061593438e+01 -6.3152860630663454e+01 -1.3538377664333342e+02 0 0 0
6504 186 4 0.0000000000000000e+00 -7.4290379197435215e+01 -5.7824355580982697e+01 -1.4204683723953974e+02 0 0 0
1374 40 2 0.0000000000000000e+00 -5.5802127942099347e+01 -5.0996525597156264e+01 -1.3436751020193739e+02 0 0 0
2219 64 2 0.0000000000000000e+00 -5.1979360072750922e+01 -6.0014535433398599e+01 -1.4402040947424308e+02 0 0 0
1375 40 2 0.0000000000000000e+00 -4.8903894104536668e+01 -4.8451195141615514e+01 -1.4067199072923441e+02 0 0 0
1376 40 1 0.0000000000000000e+00 -4.1692132207624553e+01 -5.2973675157609627e+01 -1.3477078168026719e+02 0 0 0
2098 60 2 0.0000000000000000e+00 -9.1200891159246737e+01 -3.8287373597774533e+01 -1.3919507787568580e+02 0 0 0
2092 60 2 0.0000000000000000e+00 -4.6892195603445955e+01 -3.7982532128913711e+01 -1.4684089965660399e+02 0 0 0
2091 60 2 0.0000000000000000e+00 -3.7611173855865644e+01 -4.2824117898557851e+01 -1.4702181307258655e+02 0 0 0
2090 60 1 0.0000000000000000e+00 -3.4737192183745528e+01 -3.5107005332230095e+01 -1.4089226934687096e+02 0 0 0
5430 156 4 0.0000000000000000e+00 -2.1319360197177577e+01 -3.9781064564486350e+01 -1.4314642532239344e+02 0 0 0
5431 156 4 0.0000000000000000e+00 -1.5736552264374945e+01 -4.6650628353336693e+01 -1.3855831632883354e+02 0 0 0
2097 60 1 0.0000000000000000e+00 -8.7496593692730798e+01 -2.8557871948460956e+01 -1.3971253519172777e+02 0 0 0
2096 60 2 0.0000000000000000e+00 -7.8077543621387349e+01 -2.8600838707762726e+01 -1.4279215611384888e+02 0 0 0
2095 60 2 0.0000000000000000e+00 -6.9393826123560757e+01 -2.9756409092893382e+01 -1.3900937718185438e+02 0 0 0
2094 60 2 0.0000000000000000e+00 -6.0785470064657716e+01 -2.6165134208862948e+01 -1.4269782347320140e+02 0 0 0
2093 60 2 0.0000000000000000e+00 -5.1766479984536119e+01 -3.0243902189481780e+01 -1.4418914063309109e+02 0 0 0
2089 60 2 0.0000000000000000e+00 -3.5595262419023371e+01 -2.7307940271652900e+01 -1.3429831977614492e+02 0 0 0
3022 87 2 0.0000000000000000e+00 -1.8686916229709659e+01 -2.4208679719818576e+01 -1.4361849015542552e+02 0 0 0
3023 87 2 0.0000000000000000e+00 -1.5973134780299182e+01 -3.2583541937082224e+01 -1.3890309548086887e+02 0 0 0
6296 180 4 0.0000000000000000e+00 -1.2095907376065546e+02 -1.0075359623805285e+01 -1.3949452534453522e+02 0 0 0
2066 60 2 0.0000000000000000e+00 -1.0747414780142502e+02 -1.9781018602646618e+01 -1.4273259151107939e+02 0 0 0
2067 60 2 0.0000000000000000e+00 -1.0893405103009971e+02 -9.9602765961111732e+00 -1.4462628276960061e+02 0 0 0
6513 187 4 0.0000000000000000e+00 -8.7252352238877492e+01 -1.2390955638669766e+01 -1.4343550076214927e+02 0 0 0
6514 187 3 0.0000000000000000e+00 -8.6122985639274887e+01 -1.8801441235128991e+01 -1.3465792559718338e+02 0 0 0
5542 159 4 0.0000000000000000e+00 -6.0378284949709816e+01 -1.8510936599471552e+01 -1.3585852091932250e+02 0 0 0
1629 47 2 0.0000000000000000e+00 -4.8711957242089383e+01 -1.5499551634297363e+01 -1.4507605773837912e+02 0 0 0
1628 47 1 0.0000000000000000e+00 -5.2471310312072582e+01 -8.7839175009410297e+00 -1.3812977530719624e+02 0 0 0
3020 87 2 0.0000000000000000e+00 -3.0200696146392325e+01 -9.1366044915438742e+00 -1.4075839323604424e+02 0 0 0
3021 87 1 0.0000000000000000e+00 -2.6218737705702587e+01 -1.6886226746140142e+01 -1.4529977655145831e+02 0 0 0
4548 130 4 0.0000000000000000e+00 -2.0656083050821540e+01 -8.4134694151892440e+00 -1.3715092282304957e+02 0 0 0
4547 130 3 0.0000000000000000e+00 -1.5979322802008161e+01 -1.2991227352121911e+01 -1.4414880281122464e+02 0 0 0
6295 180 4 0.0000000000000000e+00 -1.2105451804540900e+02 -1.3106460761800509e+00 -1.3462577043710397e+02 0 0 0
2068 60 2 0.0000000000000000e+00 -1.0839819495800297e+02 -9.5651872697883156e-01 -1.4099702836570839e+02 0 0 0
4745 136 4 0.0000000000000000e+00 -6.5675988126338680e+01 -4.5713999344750995e+00 -1.4517383194470688e+02 0 0 0
4746 136 4 0.0000000000000000e+00 -6.7480620458589968e+01 -4.1608767972665497e+00 -1.3577880083296031e+02 0 0 0
1627 47 2 0.0000000000000000e+00 -5.4804596054461122e+01 2.8207553836803062e-01 -1.4125205169809720e+02 0 0 0
3018 87 2 0.0000000000000000e+00 -3.9233300378102896e+01 7.3573022405174875e+00 -1.3870805881555253e+02 0 0 0
3019 87 2 0.0000000000000000e+00 -3.1718182508877547e+01 8.0971903808493273e-01 -1.3782569839805555e+02 0 0 0
2069 60 1 0.0000000000000000e+00 -1.0590618908700368e+02 7.3903286933071852e+00 -1.4537709180088595e+02 0 0 0
2070 60 2 0.0000000000000000e+00 -1.0810726973347573e+02 1.4776966483376766e+01 -1.3987576004057715e+02 0 0 0
6310 181 4 0.0000000000000000e+00 -7.5908959093701583e+01 8.5675477017380413e+00 -1.4021550871079404e+02 0 0 0
2076 60 1 0.0000000000000000e+00 -8.0864601868697335e+01 1.8581493164057672e+01 -1.3372090557981747e+02 0 0 0
1626 47 2 0.0000000000000000e+00 -5.2611323580694048e+01 9.7188676978235620e+00 -1.4022877951314999e+02 0 0 0
1625 47 2 0.0000000000000000e+00 -4.6534433321929015e+01 1.4638595795660574e+01 -1.4625283674544352e+02 0 0 0
3017 87 2 0.0000000000000000e+00 -4.5146230603858868e+01 1.4599233797802995e+01 -1.3561225677737457e+02 0 0 0
1622 47 2 0.0000000000000000e+00 -1.7520050815990352e+01 9.9662568416098907e+00 -1.4180433452251492e+02 0 0 0
1623 47 2 0.0000000000000000e+00 -2.6610587365498798e+01 1.1599463064055078e+01 -1.4594294832121770e+02 0 0 0
1801 52 2 0.0000000000000000e+00 -9.4793831756516582e+01 2.9856308144657497e+01 -1.3767600569277610e+02 0 0 0
1802 52 2 0.0000000000000000e+00 -8.5112751840950381e+01 3.2816470420854451e+01 -1.3593316561288034e+02 0 0 0
3016 87 2 0.0000000000000000e+00 -5.0588543988593500e+01 2.2341023936359800e+01 -1.3809572309140745e+02 0 0 0
3015 87 2 0.0000000000000000e+00 -5.3292497175169764e+01 3.0962613471454727e+01 -1.4100603600081701e+02 0 0 0
2240 64 2 0.0000000000000000e+00 -4.5114954179996133e+01 3.4740918808106898e+01 -1.4655710846823999e+02 0 0 0
6502 186 4 0.0000000000000000e+00 -7.0911355930251304e+01 -6.9727997119646446e+01 -1.2831579394410196e+02 0 0 0
6501 186 4 0.0000000000000000e+00 -6.4868854332774546e+01 -7.2016826014969652e+01 -1.2100481190036570e+02 0 0 0
4200 120 4 0.0000000000000000e+00 -5.5475061579572959e+01 -7.4526736712080535e+01 -1.2735683421145785e+02 0 0 0
4199 120 4 0.0000000000000000e+00 -5.1327443411947947e+01 -6.7055189807176774e+01 -1.2270154731667546e+02 0 0 0
1372 40 2 0.0000000000000000e+00 -6.8696588764041252e+01 -5.5657878890221767e+01 -1.2129665871226847e+02 0 0 0
1373 40 2 0.0000000000000000e+00 -6.4627076729211353e+01 -5.2246785090977440e+01 -1.3022465029308890e+02 0 0 0
2217 64 2 0.0000000000000000e+00 -5.7267627232118890e+01 -5.9560704185711415e+01 -1.2663573031105419e+02 0 0 0
1377 40 2 0.0000000000000000e+00 -3.4705473741865227e+01 -5.4934303062871862e+01 -1.2801494233748102e+02 0 0 0
2099 60 2 0.0000000000000000e+00 -9.7574758199748885e+01 -4.1449383509581736e+01 -1.3268703368775158e+02 0 0 0
2100 60 2 0.0000000000000000e+00 -1.0577842082442828e+02 -4.0711423832457648e+01 -1.2606044954311911e+02 0 0 0
6497 186 4 0.0000000000000000e+00 -7.2976063830778330e+01 -4.2853266143664243e+01 -1.2030895339713713e+02 0 0 0
6335 181 4 0.0000000000000000e+00 -6.3985607718601159e+01 -4.1718178457814872e+01 -1.2995587018410367e+02 0 0 0
6334 181 4 0.0000000000000000e+00 -5.5570486815315853e+01 -4.3496394194524434e+01 -1.2470724905107419e+02 0 0 0
6333 181 4 0.0000000000000000e+00 -4.5846466981768984e+01 -4.1900440241167395e+01 -1.2643491306186003e+02 0 0 0
6332 181 3 0.0000000000000000e+00 -3.8436401204330814e+01 -4.1623190198549821e+01 -1.3354057807161001e+02 0 0 0
6331 181 4 0.0000000000000000e+00 -3.0404414268278966e+01 -3.7526586968315016e+01 -1.2943677323677085e+02 0 0 0
6298 180 4 0.0000000000000000e+00 -1.1218153970380578e+02 -2.5056285765183809e+01 -1.3054243739234991e+02 0 0 0
6299 180 4 0.0000000000000000e+00 -1.1050589327776882e+02 -2.9610892250444088e+01 -1.2225114175765594e+02 0 0 0
2551 73 2 0.0000000000000000e+00 -1.2136158229099109e+02 -2.0436076595860584e+01 -1.2014134751200936e+02 0 0 0
5543 159 4 0.0000000000000000e+00 -6.2110835800468216e+01 -2.6675827302154428e+01 -1.3054222283218806e+02 0 0 0
5544 159 4 0.0000000000000000e+00 -5.6329402609647424e+01 -2.7426425402558333e+01 -1.2234098988965368e+02 0 0 0
6330 181 4 0.0000000000000000e+00 -2.3943628208057564e+01 -3.0287361465463032e+01 -1.2950469474628076e+02 0 0 0
6329 181 4 0.0000000000000000e+00 -1.9397715240896090e+01 -2.1325356730594809e+01 -1.2644124956174899e+02 0 0 0
2555 73 2 0.0000000000000000e+00 -1.5225644597852448e+02 -9.5792377064028820e+00 -1.2974338118056431e+02 0 0 0
2554 73 2 0.0000000000000000e+00 -1.4251065555391253e+02 -7.9386524022249612e+00 -1.3222897648047851e+02 0 0 0
2553 73 2 0.0000000000000000e+00 -1.3276922912602478e+02 -9.9528273585243419e+00 -1.3223228098982690e+02 0 0 0
2552 73 1 0.0000000000000000e+00 -1.2599041950347116e+02 -1.5767603972952790e+01 -1.2704740233662605e+02 0 0 0
6297 180 3 0.0000000000000000e+00 -1.1684894907421615e+02 -1.6256384548519875e+01 -1.3323387046490387e+02 0 0 0
6515 187 4 0.0000000000000000e+00 -7.8429909644995305e+01 -1.6460329026966697e+01 -1.2797470901175789e+02 0 0 0
6516 187 4 0.0000000000000000e+00 -7.2228307080286697e+01 -1.2342013106027045e+01 -1.2230697744926796e+02 0 0 0
4748 136 4 0.0000000000000000e+00 -8.0726589524006855e+01 -6.5297402423878408e+00 -1.2263771564090024e+02 0 0 0
5541 159 3 0.0000000000000000e+00 -5.1880368749045104e+01 -1.7117492944464104e+01 -1.3026381746117431e+02 0 0 0
2087 60 2 0.0000000000000000e+00 -4.4218221619590167e+01 -1.4750421354799625e+01 -1.2211441244942492e+02 0 0 0
5540 159 4 0.0000000000000000e+00 -4.8087605675050590e+01 -8.3179983756360549e+00 -1.2733038228360006e+02 0 0 0
2088 60 2 0.0000000000000000e+00 -3.8851734564061545e+01 -1.9208526141350777e+01 -1.2925558983317217e+02 0 0 0
6328 181 4 0.0000000000000000e+00 -1.6219356633863697e+01 -1.1931383814498513e+01 -1.2780136905802084e+02 0 0 0
4549 130 4 0.0000000000000000e+00 -2.5573377320435526e+01 -9.9000081718483948e+00 -1.2904048475205892e+02 0 0 0
6294 180 4 0.0000000000000000e+00 -1.2600469023034280e+02 5.8694053742109453e+00 -1.3080212457486579e+02 0 0 0
2078 60 2 0.0000000000000000e+00 -8.8944866366360245e+01 6.6889388088250481e+00 -1.2330763072431327e+02 0 0 0
4747 136 4 0.0000000000000000e+00 -7.2063309228788583e+01 -3.6046681784126724e+00 -1.2752941658177895e+02 0 0 0
5539 159 4 0.0000000000000000e+00 -5.3894896033128461e+01 -1.0229754435514320e+00 -1.2395683782896531e+02 0 0 0
6326 181 4 0.0000000000000000e+00 -2.0800557077826412e+01 6.7144554232020424e+00 -1.2456549446430250e+02 0 0 0
6327 181 4 0.0000000000000000e+00 -1.9223409633539688e+01 -2.4513794104865436e+00 -1.2698645689018726e+02 0 0 0
6293 180 4 0.0000000000000000e+00 -1.3262211374507166e+02 9.0534901241197190e+00 -1.2471568316005569e+02 0 0 0
2071 60 2 0.0000000000000000e+00 -1.1062565087275692e+02 1.8384462755553773e+01 -1.3092198598595573e+02 0 0 0
2072 60 2 0.0000000000000000e+00 -1.0489846108985827e+02 1.9618119754699265e+01 -1.2330216127129931e+02 0 0 0
2077 60 2 0.0000000000000000e+00 -8.2233876341436982e+01 9.6125425430550671e+00 -1.2945186202775236e+02 0 0 0
6311 181 3 0.0000000000000000e+00 -7.1253754207348592e+01 1.2957034976597329e+01 -1.3139852073421659e+02 0 0 0
6312 181 4 0.0000000000000000e+00 -6.5303315244834479e+01 1.8206776446184577e+01 -1.2443866298316993e+02 0 0 0
5538 159 4 0.0000000000000000e+00 -5.7928337295832605e+01 7.6114235393581389e+00 -1.2770359959042467e+02 0 0 0
5537 159 4 0.0000000000000000e+00 -5.4807992396056697e+01 1.7301158281070517e+01 -1.2810910307971318e+02 0 0 0
1798 52 2 0.0000000000000000e+00 -1.1748801157021656e+02 3.1319404773919377e+01 -1.2408449409034138e+02 0 0 0
1800 52 2 0.0000000000000000e+00 -1.0073827266472807e+02 2.4342345635823193e+01 -1.3332443318364153e+02 0 0 0
1799 52 2 0.0000000000000000e+00 -1.0814101395372091e+02 2.7850974241238649e+01 -1.2706005583066455e+02 0 0 0
2075 60 2 0.0000000000000000e+00 -8.5161030277678435e+01 2.4204728028342316e+01 -1.2636391353293601e+02 0 0 0
1803 52 1 0.0000000000000000e+00 -7.5886163430662876e+01 3.3622608201083523e+01 -1.3145658754310057e+02 0 0 0
5536 159 4 0.0000000000000000e+00 -5.6183091760337199e+01 2.7041594392160597e+01 -1.2830263208682612e+02 0 0 0
5535 159 4 0.0000000000000000e+00 -6.2951742562464688e+01 3.3705824537132109e+01 -1.2769073188517639e+02 0 0 0
1538 44 2 0.0000000000000000e+00 -1.6769600372938232e+01 2.9449383879000418e+01 -1.2197035106676293e+02 0 0 0
1366 40 2 0.0000000000000000e+00 -7.0592862796272229e+01 -8.5629651256352190e+01 -1.0786159355000717e+02 0 0 0
1371 40 2 0.0000000000000000e+00 -7.0309931505798275e+01 -6.2054139086515441e+01 -1.1319690999807345e+02 0 0 0
6500 186 3 0.0000000000000000e+00 -5.8567989730215594e+01 -6.4269569255574311e+01 -1.1744610779317361e+02 0 0 0
4198 120 4 0.0000000000000000e+00 -4.8989616079615864e+01 -6.4675277270138068e+01 -1.1353089913037532e+02 0 0 0
2521 73 2 0.0000000000000000e+00 -1.3369496001404241e+02 -5.1427522894366774e+01 -1.1611521766842495e+02 0 0 0
2522 73 2 0.0000000000000000e+00 -1.2467130610359368e+02 -4.8029461700165967e+01 -1.1417688391503847e+02 0 0 0
6499 186 4 0.0000000000000000e+00 -6.2207726549530740e+01 -5.5022015938300463e+01 -1.1435111389443499e+02 0 0 0
2216 64 1 0.0000000000000000e+00 -5.3635993280824792e+01 -5.4400060498583656e+01 -1.1878204382675669e+02 0 0 0
1378 40 2 0.0000000000000000e+00 -2.9185764365334030e+01 -5.7940965466274086e+01 -1.2001702673853940e+02 0 0 0
1379 40 2 0.0000000000000000e+00 -3.5657263665790907e+01 -6.0267171290210158e+01 -1.1246110588480789e+02 0 0 0
2523 73 2 0.0000000000000000e+00 -1.1567153216400796e+02 -4.3782607727801256e+01 -1.1448023920698699e+02 0 0 0
2524 73 1 0.0000000000000000e+00 -1.0983997063898437e+02 -3.8722386641423945e+01 -1.0785723861121657e+02 0 0 0
6495 186 4 0.0000000000000000e+00 -8.7945361458247902e+01 -3.9513359247033726e+01 -1.1018116169103735e+02 0 0 0
6496 186 4 0.0000000000000000e+00 -8.1635862880188910e+01 -3.8671987159657732e+01 -1.1818838013597603e+02 0 0 0
6498 186 4 0.0000000000000000e+00 -6.4124575412807602e+01 -4.5715522303132438e+01 -1.1684952261387777e+02 0 0 0
2215 64 2 0.0000000000000000e+00 -4.9439733599360423e+01 -4.6000658651212539e+01 -1.1511207206784368e+02 0 0 0
2214 64 2 0.0000000000000000e+00 -5.1963219492552575e+01 -3.6582457874699301e+01 -1.1396052542509850e+02 0 0 0
6300 180 4 0.0000000000000000e+00 -1.1480696870913229e+02 -3.2826759379156542e+01 -1.1365468343006808e+02 0 0 0
2213 64 2 0.0000000000000000e+00 -4.3971721261320312e+01 -3.3699391818366216e+01 -1.0914976197023394e+02 0 0 0
5545 159 4 0.0000000000000000e+00 -5.2086830861869622e+01 -2.5046824786451566e+01 -1.1366660186337748e+02 0 0 0
2212 64 2 0.0000000000000000e+00 -3.7882395517305397e+01 -2.5874684158296166e+01 -1.0895438320984471e+02 0 0 0
5769 165 4 0.0000000000000000e+00 -2.3283237040386872e+01 -2.1478631207293155e+01 -1.0980549626482046e+02 0 0 0
2550 73 2 0.0000000000000000e+00 -1.1786185304747242e+02 -2.0018067514697076e+01 -1.1009910317437850e+02 0 0 0
6517 187 4 0.0000000000000000e+00 -6.9631269251883168e+01 -1.1046278835411933e+01 -1.1342724389237341e+02 0 0 0
2086 60 2 0.0000000000000000e+00 -4.9804702561804405e+01 -7.9871364853756752e+00 -1.1691620033640982e+02 0 0 0
2211 64 2 0.0000000000000000e+00 -3.6095893645131603e+01 -1.6150047628557086e+01 -1.0871069027638592e+02 0 0 0
2210 64 2 0.0000000000000000e+00 -2.9126138816581896e+01 -9.3388863815432579e+00 -1.0961075908634183e+02 0 0 0
2079 60 2 0.0000000000000000e+00 -9.1980167740353295e+01 2.4806443305064856e+00 -1.1496996825623629e+02 0 0 0
4749 136 4 0.0000000000000000e+00 -8.0858749487782219e+01 -4.2276934039153269e-01 -1.1475564295493334e+02 0 0 0
4750 136 3 0.0000000000000000e+00 -7.5751210691088659e+01 1.5965993388396842e+00 -1.0672026472751986e+02 0 0 0
2085 60 2 0.0000000000000000e+00 -5.7533361488776045e+01 -4.6368918801591104e+00 -1.1133698635698438e+02 0 0 0
6316 181 4 0.0000000000000000e+00 -3.3048999446957779e+01 3.1134079897969076e+00 -1.1530141761367626e+02 0 0 0
4550 130 4 0.0000000000000000e+00 -2.6049288278250078e+01 -5.9268049320649387e+00 -1.2003627765740484e+02 0 0 0
6317 181 4 0.0000000000000000e+00 -2.7747742783265181e+01 1.7806495437680208e+00 -1.0781564998915576e+02 0 0 0
6292 180 4 0.0000000000000000e+00 -1.2963260206499336e+02 1.2225118779208218e+01 -1.1619022477440997e+02 0 0 0
6291 180 4 0.0000000000000000e+00 -1.2916674806489982e+02 1.1934545748447817e+01 -1.0664432697745012e+02 0 0 0
6313 181 4 0.0000000000000000e+00 -5.7005265401987877e+01 1.5759488922605012e+01 -1.1837946588525462e+02 0 0 0
6314 181 4 0.0000000000000000e+00 -4.9450351050755657e+01 1.0934225877210903e+01 -1.1392921515730498e+02 0 0 0
6315 181 4 0.0000000000000000e+00 -3.9262315839657170e+01 1.0584004756801344e+01 -1.1453175199334713e+02 0 0 0
1529 44 2 0.0000000000000000e+00 -2.9462876764751631e+01 1.8086850458412584e+01 -1.1697356788275870e+02 0 0 0
1528 44 2 0.0000000000000000e+00 -2.7083340716781436e+01 1.1959177864617391e+01 -1.0944078368324517e+02 0 0 0
6325 181 3 0.0000000000000000e+00 -1.7969943429895373e+01 1.1679017850112791e+01 -1.1620691904524294e+02 0 0 0
1797 52 2 0.0000000000000000e+00 -1.2444500649086392e+02 3.1594795459363063e+01 -1.1690750710429978e+02 0 0 0
577 17 2 0.0000000000000000e+00 -1.1069376924799356e+02 3.2519620440948600e+01 -1.0650982732408906e+02 0 0 0
2073 60 2 0.0000000000000000e+00 -9.8054969503983287e+01 2.5297195067275585e+01 -1.1997484805654408e+02 0 0 0
5904 169 4 0.0000000000000000e+00 -9.7714492516059124e+01 3.2748605557062142e+01 -1.1151917131944005e+02 0 0 0
2074 60 2 0.0000000000000000e+00 -8.8783766548233572e+01 2.2835951011402482e+01 -1.1697680289868656e+02 0 0 0
5903 169 4 0.0000000000000000e+00 -9.5347817976827130e+01 2.3880241348654703e+01 -1.0801925261846293e+02 0 0 0
1530 44 1 0.0000000000000000e+00 -3.7400398491695242e+01 2.4790653753279670e+01 -1.1550211309204802e+02 0 0 0
1531 44 2 0.0000000000000000e+00 -4.0464679422980431e+01 3.2127350210302424e+01 -1.0920723725768336e+02 0 0 0
5128 147 3 0.0000000000000000e+00 -2.8174205929980708e+01 2.7847079677494055e+01 -1.0952129453593865e+02 0 0 0
5129 147 4 0.0000000000000000e+00 -1.9215814851070963e+01 3.0770253861176776e+01 -1.0691394487681607e+02 0 0 0
2811 81 1 0.0000000000000000e+00 -2.2141186896948096e+01 -1.0064579779552081e+02 -9.4494449878118800e+01 0 0 0
3741 107 4 0.0000000000000000e+00 -9.9124187616780461e+01 -8.3693334658367704e+01 -9.7934780601590901e+01 0 0 0
3740 107 4 0.0000000000000000e+00 -9.0511687804382760e+01 -8.2008243008950643e+01 -1.0351076987685930e+02 0 0 0
3739 107 4 0.0000000000000000e+00 -8.1000715909426077e+01 -7.9246796867047593e+01 -1.0466905666072017e+02 0 0 0
1367 40 2 0.0000000000000000e+00 -6.2835837173989610e+01 -8.2899903504311737e+01 -1.0303382643167521e+02 0 0 0
1368 40 2 0.0000000000000000e+00 -6.3167826441781820e+01 -7.5014973034351684e+01 -9.7151324557409012e+01 0 0 0
3738 107 4 0.0000000000000000e+00 -7.9807700390219978e+01 -7.2078332816306883e+01 -9.8204961159833175e+01 0 0 0
2538 73 1 0.0000000000000000e+00 -7.3172794678124248e+01 -6.2181615410523328e+01 -9.4017367491516168e+01 0 0 0
1369 40 1 0.0000000000000000e+00 -6.3883629447079656e+01 -6.6004719798669640e+01 -1.0068312583571968e+02 0 0 0
4196 120 4 0.0000000000000000e+00 -4.9886818409163638e+01 -6.7700987783241558e+01 -9.5449705519466406e+01 0 0 0
4197 120 3 0.0000000000000000e+00 -5.3388847457532457e+01 -6.6130697884379956e+01 -1.0483246886869323e+02 0 0 0
2539 73 2 0.0000000000000000e+00 -7.5125966892348444e+01 -5.3696230412460643e+01 -9.9245583785985232e+01 0 0 0
2540 73 2 0.0000000000000000e+00 -8.2545316978234425e+01 -4.7978044760557815e+01 -9.4854786958508981e+01 0 0 0
1370 40 2 0.0000000000000000e+00 -6.6917655675770405e+01 -5.7577436120966048e+01 -1.0512683286456139e+02 0 0 0
1381 40 2 0.0000000000000000e+00 -4.9855887713825176e+01 -5.3788854801527307e+01 -1.0315037608818427e+02 0 0 0
1382 40 2 0.0000000000000000e+00 -5.1758202034020705e+01 -4.7616804430744956e+01 -9.4868626875018535e+01 0 0 0
1380 40 2 0.0000000000000000e+00 -4.1168850509259997e+01 -5.8427939825415400e+01 -1.0486618362614081e+02 0 0 0
2525 73 2 0.0000000000000000e+00 -1.0570726541577432e+02 -4.2357147172930226e+01 -1.0008283428156105e+02 0 0 0
6494 186 4 0.0000000000000000e+00 -9.5775925553433424e+01 -3.6275786893557218e+01 -1.0436134799773282e+02 0 0 0
6252 179 4 0.0000000000000000e+00 -9.3798606817476283e+01 -3.4075653527299501e+01 -9.3726768038803456e+01 0 0 0
6250 179 4 0.0000000000000000e+00 -7.6834220417609998e+01 -3.9539730066632686e+01 -9.4364687144785890e+01 0 0 0
6493 186 3 0.0000000000000000e+00 -1.0291131492768145e+02 -3.0444383835472053e+01 -1.0547880573480448e+02 0 0 0
6492 186 4 0.0000000000000000e+00 -1.0281384779766015e+02 -2.4788610612395228e+01 -9.7127802210998240e+01 0 0 0
281 9 2 0.0000000000000000e+00 -6.3011215933927289e+01 -2.3469421357937755e+01 -9.6465693418084243e+01 0 0 0
5547 159 4 0.0000000000000000e+00 -5.0581277714482226e+01 -2.6519934877988373e+01 -9.6877530477143807e+01 0 0 0
5546 159 4 0.0000000000000000e+00 -4.7445721732375759e+01 -2.2893715576620234e+01 -1.0541385413789473e+02 0 0 0
5771 165 4 0.0000000000000000e+00 -3.7036215656191750e+01 -2.2600587372063362e+01 -9.5231155166293064e+01 0 0 0
5770 165 4 0.0000000000000000e+00 -2.9709318020989507e+01 -2.0245643369597556e+01 -1.0209083855028666e+02 0 0 0
2549 73 2 0.0000000000000000e+00 -1.1392242679835788e+02 -1.2956300892281893e+01 -1.0451366283495008e+02 0 0 0
2548 73 2 0.0000000000000000e+00 -1.0689558450631191e+02 -7.3064883050949856e+00 -9.9584068661443965e+01 0 0 0
4752 136 4 0.0000000000000000e+00 -8.1919440691033060e+01 -1.3616097453126780e+01 -9.6723107088962280e+01 0 0 0
4751 136 4 0.0000000000000000e+00 -7.5734490401943546e+01 -7.1445256493618636e+00 -1.0148759929007204e+02 0 0 0
6518 187 4 0.0000000000000000e+00 -6.3935617893187818e+01 -1.1169998869280970e+01 -1.0538604680348138e+02 0 0 0