LAMMPS data file via write_data, version 5 Jun 2019, timestep = 340000000

7000 atoms
4 atom types
7285 bonds
3 bond types
6600 angles
2 angle types

-5.0000000000000000e+02 5.0000000000000000e+02 xlo xhi
-5.0000000000000000e+02 5.0000000000000000e+02 ylo yhi
-5.0000000000000000e+02 5.0000000000000000e+02 zlo zhi

Masses

1 1000
2 1000
3 1000
4 1000

Pair Coeffs # lj/cut

1 0.178 10
2 0.178 10
3 0.178 10
4 0.178 10

Angle Coeffs # cosine

1 2
2 2

Atoms # full

6510 186 4 0.0000000000000000e+00 -6.8759676000327417e+01 -7.0973098415902115e+01 -1.7199330208553351e+02 0 0 0
2232 64 2 0.0000000000000000e+00 -8.6544470543214601e+01 -5.1683952044798055e+01 -1.7092536943663077e+02 0 0 0
2227 64 2 0.0000000000000000e+00 -5.7753752955842138e+01 -4.6378628267910287e+01 -1.7168208892372456e+02 0 0 0
4727 136 4 0.0000000000000000e+00 -2.1937328323970259e+01 -4.3344818497546214e+01 -1.7090901798533540e+02 0 0 0
4440 127 4 0.0000000000000000e+00 -6.6142922423864420e+01 -2.3602207831886169e+01 -1.7577529009936470e+02 0 0 0
4439 127 4 0.0000000000000000e+00 -6.4293057609833795e+01 -1.4168404052280348e+01 -1.7724216716197736e+02 0 0 0
4438 127 4 0.0000000000000000e+00 -6.3886279241678665e+01 -4.1982517971964892e+00 -1.7659146305913282e+02 0 0 0
4437 127 4 0.0000000000000000e+00 -6.4237554256325041e+01 5.9997396909605927e+00 -1.7377888673219570e+02 0 0 0
2072 60 2 0.0000000000000000e+00 -1.0215963624777578e+02 2.1353184620244722e+01 -1.7607330290856495e+02 0 0 0
6509 186 4 0.0000000000000000e+00 -5.9457754574803808e+01 -7.0963863444035482e+01 -1.6790037654353188e+02 0 0 0
6508 186 4 0.0000000000000000e+00 -5.3021276460500829e+01 -7.0258731279858026e+01 -1.5999939173698593e+02 0 0 0
2225 64 2 0.0000000000000000e+00 -4.9960211644497001e+01 -5.9348509095963955e+01 -1.6065392910248829e+02 0 0 0
2233 64 2 0.0000000000000000e+00 -9.4001097182291133e+01 -4.6015268155449007e+01 -1.6683120074428206e+02 0 0 0
2231 64 2 0.0000000000000000e+00 -7.7507481179498726e+01 -4.8880425690874880e+01 -1.6857056652780844e+02 0 0 0
2226 64 2 0.0000000000000000e+00 -5.5177763801652212e+01 -5.0900208097070980e+01 -1.6299666923543549e+02 0 0 0
4726 136 4 0.0000000000000000e+00 -1.8597096705874904e+01 -4.8870229062458364e+01 -1.6333768727539697e+02 0 0 0
2234 64 2 0.0000000000000000e+00 -9.9310771689551132e+01 -3.7043493977993272e+01 -1.6796880118365695e+02 0 0 0
2230 64 1 0.0000000000000000e+00 -7.2090647973838401e+01 -4.1773565915598098e+01 -1.6532206562064786e+02 0 0 0
4442 127 3 0.0000000000000000e+00 -6.8981948825718888e+01 -3.2084473772077523e+01 -1.6050470948983653e+02 0 0 0
2229 64 2 0.0000000000000000e+00 -6.2648545088072304e+01 -4.0582033262191665e+01 -1.6511049804148115e+02 0 0 0
2228 64 2 0.0000000000000000e+00 -5.2354868714498984e+01 -3.9982140959715267e+01 -1.6604756500475531e+02 0 0 0
4728 136 4 0.0000000000000000e+00 -2.5839461714791547e+01 -3.8449337932839086e+01 -1.6350271119324509e+02 0 0 0
2235 64 2 0.0000000000000000e+00 -9.6974824032979143e+01 -2.7396603158510398e+01 -1.6503558936059042e+02 0 0 0
2236 64 2 0.0000000000000000e+00 -9.3380150130816375e+01 -1.9113484278091882e+01 -1.6113589480840352e+02 0 0 0
4441 127 4 0.0000000000000000e+00 -6.3870465819957261e+01 -2.9157476668294670e+01 -1.6821307107307453e+02 0 0 0
4729 136 3 0.0000000000000000e+00 -2.1622733548645225e+01 -2.9859154973129087e+01 -1.5940717707345789e+02 0 0 0
4730 136 4 0.0000000000000000e+00 -1.6720434046260536e+01 -2.1318212638546409e+01 -1.5843497804071623e+02 0 0 0
4741 136 4 0.0000000000000000e+00 -6.6901256559340908e+01 -1.5109105124487666e+01 -1.5849023962371018e+02 0 0 0
4739 136 4 0.0000000000000000e+00 -4.7367464693947149e+01 -1.5614478043752944e+01 -1.5717927060391139e+02 0 0 0
4738 136 4 0.0000000000000000e+00 -3.7194780566279178e+01 -1.5420482786838610e+01 -1.5901488698829172e+02 0 0 0
3013 87 2 0.0000000000000000e+00 -7.3161768830910546e+01 9.5760249954119292e+00 -1.6307814481410875e+02 0 0 0
1626 47 2 0.0000000000000000e+00 -6.5024089183027243e+01 1.7160408833915042e+00 -1.6198421555511638e+02 0 0 0
1625 47 2 0.0000000000000000e+00 -5.8696507204683726e+01 8.1609290287850591e+00 -1.6538845476319170e+02 0 0 0
1624 47 2 0.0000000000000000e+00 -4.9943624178211536e+01 3.7350448892452746e+00 -1.6583010412151873e+02 0 0 0
1623 47 2 0.0000000000000000e+00 -4.3704072603481194e+01 -1.8957607810551994e-01 -1.5997844125638255e+02 0 0 0
2073 60 2 0.0000000000000000e+00 -9.9801899328134297e+01 1.7774739348916185e+01 -1.6736015470678964e+02 0 0 0
4435 127 3 0.0000000000000000e+00 -7.3445703698778487e+01 2.2978249752070653e+01 -1.6677377592027091e+02 0 0 0
3014 87 1 0.0000000000000000e+00 -7.0457803923087667e+01 1.7589880582992784e+01 -1.5745233380707688e+02 0 0 0
4436 127 4 0.0000000000000000e+00 -6.7660272645815340e+01 1.5013098243588709e+01 -1.6884082021518645e+02 0 0 0
6506 186 4 0.0000000000000000e+00 -5.3043378572497808e+01 -7.8773582504104411e+01 -1.4724463012625068e+02 0 0 0
6507 186 3 0.0000000000000000e+00 -4.6071290933632220e+01 -7.5771622064451805e+01 -1.5465453009133702e+02 0 0 0
2224 64 2 0.0000000000000000e+00 -4.4540061234276145e+01 -6.5700552681178934e+01 -1.5500515191380731e+02 0 0 0
2223 64 1 0.0000000000000000e+00 -4.7106678901141336e+01 -6.9183468295156473e+01 -1.4578392324901372e+02 0 0 0
5427 156 4 0.0000000000000000e+00 -5.3964536204804304e+01 -4.7366368717279286e+01 -1.4492658015523324e+02 0 0 0
6335 181 4 0.0000000000000000e+00 -2.8314503452825349e+01 -4.9419548159883803e+01 -1.5343944577145564e+02 0 0 0
6334 181 4 0.0000000000000000e+00 -2.9906458264014191e+01 -4.5978169330897344e+01 -1.4375586928159254e+02 0 0 0
5433 156 4 0.0000000000000000e+00 -1.5938370787016412e+01 -5.3182009650119461e+01 -1.4570429333046994e+02 0 0 0
5426 156 4 0.0000000000000000e+00 -5.5202400756993740e+01 -4.4374563435045161e+01 -1.5452783840205788e+02 0 0 0
5432 156 4 0.0000000000000000e+00 -1.8460201344970280e+01 -4.3878594135273133e+01 -1.4595266329763317e+02 0 0 0
5431 156 4 0.0000000000000000e+00 -2.4345172728850386e+01 -3.6262833356439060e+01 -1.4288460791838619e+02 0 0 0
4744 136 4 0.0000000000000000e+00 -9.0109776221478484e+01 -2.2655895918395696e+01 -1.4554873742705988e+02 0 0 0
4742 136 4 0.0000000000000000e+00 -7.3289746995624938e+01 -2.1949006752254672e+01 -1.5530567392096123e+02 0 0 0
4743 136 3 0.0000000000000000e+00 -8.1515374676352991e+01 -2.4054733815795938e+01 -1.5033117375703659e+02 0 0 0
4443 127 4 0.0000000000000000e+00 -6.7149906432754634e+01 -3.1115508592630292e+01 -1.5085072225714228e+02 0 0 0
1631 47 2 0.0000000000000000e+00 -4.4298429890463744e+01 -2.3357984890114906e+01 -1.4500745403033130e+02 0 0 0
1630 47 2 0.0000000000000000e+00 -5.3729474362402797e+01 -2.4414519898895154e+01 -1.4307087114182801e+02 0 0 0
1632 47 2 0.0000000000000000e+00 -3.6994570368860721e+01 -2.8979042143906405e+01 -1.4922978530136092e+02 0 0 0
1633 47 2 0.0000000000000000e+00 -2.7245880556242028e+01 -2.8916005095111043e+01 -1.5079445135538597e+02 0 0 0
1634 47 2 0.0000000000000000e+00 -1.8248384311904065e+01 -3.0735002110667082e+01 -1.4651947654776936e+02 0 0 0
2555 73 2 0.0000000000000000e+00 -1.2284295491874330e+02 -1.1465375875617301e+01 -1.5150232361229746e+02 0 0 0
2237 64 1 0.0000000000000000e+00 -8.7106268595244416e+01 -1.5521677545267433e+01 -1.5415011218562833e+02 0 0 0
2238 64 2 0.0000000000000000e+00 -8.5216881478909400e+01 -7.0628798738209690e+00 -1.4867504935996274e+02 0 0 0
4740 136 4 0.0000000000000000e+00 -5.7355932561110251e+01 -1.5651573281821317e+01 -1.5635140384678789e+02 0 0 0
1627 47 2 0.0000000000000000e+00 -6.6658906199020905e+01 -4.3928748801948938e+00 -1.5419660466948324e+02 0 0 0
1628 47 1 0.0000000000000000e+00 -6.4484407152289990e+01 -1.2004148176587952e+01 -1.4798662106552885e+02 0 0 0
4737 136 4 0.0000000000000000e+00 -2.8399416217319200e+01 -1.2260299273767666e+01 -1.5533567420702474e+02 0 0 0
1621 47 1 0.0000000000000000e+00 -3.2570247847320324e+01 -6.5950967097638395e+00 -1.4533787900426415e+02 0 0 0
3022 87 2 0.0000000000000000e+00 -3.9684956174267278e+01 -1.2433359978060256e+01 -1.4293639201437455e+02 0 0 0
3024 87 2 0.0000000000000000e+00 -2.0055004193351834e+01 -1.7427960799519504e+01 -1.4363435506265239e+02 0 0 0
2239 64 2 0.0000000000000000e+00 -8.7150840643078638e+01 1.9974180657451528e+00 -1.4611349974663256e+02 0 0 0
5540 159 4 0.0000000000000000e+00 -6.9448362668801607e+01 -2.9056149757557659e+00 -1.4391643936482777e+02 0 0 0
3011 87 2 0.0000000000000000e+00 -7.3033211193081158e+01 6.2524298308688930e+00 -1.4967792619463705e+02 0 0 0
5539 159 4 0.0000000000000000e+00 -5.9694125733931806e+01 -8.6961324169636467e-01 -1.4555786443995135e+02 0 0 0
5538 159 4 0.0000000000000000e+00 -5.6347009283576483e+01 -2.2542306017476719e+00 -1.5485336950970517e+02 0 0 0
5537 159 4 0.0000000000000000e+00 -5.5736337698123251e+01 7.8576365709643730e+00 -1.5319336976954722e+02 0 0 0
1622 47 2 0.0000000000000000e+00 -3.6148675452502182e+01 -1.1681334936268539e+00 -1.5273516242998187e+02 0 0 0
4736 136 3 0.0000000000000000e+00 -2.5193063099160973e+01 -2.9499660522705908e+00 -1.5220382604841004e+02 0 0 0
4735 136 4 0.0000000000000000e+00 -2.4938338684132109e+01 3.7431766558020390e+00 -1.4443845342100769e+02 0 0 0
4734 136 4 0.0000000000000000e+00 -1.5407807772521394e+01 5.0582732322458970e+00 -1.4722727948197050e+02 0 0 0
6314 181 4 0.0000000000000000e+00 -8.4111977982522191e+01 2.2738206952430573e+01 -1.4636247871467646e+02 0 0 0
3012 87 2 0.0000000000000000e+00 -7.9739824123565541e+01 1.0276496735942201e+01 -1.5621931267035427e+02 0 0 0
3016 87 2 0.0000000000000000e+00 -5.7936065173920035e+01 2.2272866426576304e+01 -1.4919227284911290e+02 0 0 0
5536 159 4 0.0000000000000000e+00 -6.1088724811681118e+01 1.0332906653389141e+01 -1.4522266153389424e+02 0 0 0
6505 186 4 0.0000000000000000e+00 -6.1327702461805160e+01 -7.6641414737072878e+01 -1.4216555019838978e+02 0 0 0
6504 186 4 0.0000000000000000e+00 -6.2945480782066483e+01 -7.6606211641625222e+01 -1.3216660262743838e+02 0 0 0
2222 64 2 0.0000000000000000e+00 -4.5685350335555249e+01 -7.0142246508400660e+01 -1.3604128304270796e+02 0 0 0
1372 40 2 0.0000000000000000e+00 -5.7096053355852831e+01 -5.8683324618365077e+01 -1.3445270815362423e+02 0 0 0
1374 40 2 0.0000000000000000e+00 -4.1885672771398184e+01 -4.9323406696883147e+01 -1.4205926015894380e+02 0 0 0
1373 40 2 0.0000000000000000e+00 -5.0498801888148797e+01 -5.1193937337375665e+01 -1.3706247244181668e+02 0 0 0
1375 40 2 0.0000000000000000e+00 -3.3139931078456186e+01 -5.3144635531917615e+01 -1.3845221233727483e+02 0 0 0
2092 60 2 0.0000000000000000e+00 -4.0902434021308977e+01 -4.8808338847909212e+01 -1.3119151035030052e+02 0 0 0
4445 127 4 0.0000000000000000e+00 -6.2877270827291994e+01 -3.4422352208559040e+01 -1.3398610153344470e+02 0 0 0
5428 156 4 0.0000000000000000e+00 -5.0246135749501541e+01 -3.9358446846550315e+01 -1.4117272352416029e+02 0 0 0
5429 156 3 0.0000000000000000e+00 -4.2177131046380659e+01 -3.3617926534845530e+01 -1.4082199626946021e+02 0 0 0
5430 156 4 0.0000000000000000e+00 -3.3246008319826139e+01 -3.5755863880507917e+01 -1.3905453952779195e+02 0 0 0
2091 60 2 0.0000000000000000e+00 -3.9020681389708642e+01 -3.9258090631307716e+01 -1.2942365116444708e+02 0 0 0
6333 181 4 0.0000000000000000e+00 -2.4717496926231888e+01 -4.4199314457044842e+01 -1.3526590644102865e+02 0 0 0
1643 47 2 0.0000000000000000e+00 -1.5502803563638425e+01 -3.6634545357220709e+01 -1.3172646369391177e+02 0 0 0
1644 47 2 0.0000000000000000e+00 -2.4924304412074285e+01 -3.2244049458666659e+01 -1.3333051922945850e+02 0 0 0
6300 180 4 0.0000000000000000e+00 -1.3993179195001426e+02 -2.7480918509282908e+01 -1.3600473401404295e+02 0 0 0
6299 180 4 0.0000000000000000e+00 -1.3628897637800634e+02 -1.8787773516310239e+01 -1.3198044222561552e+02 0 0 0
5543 159 4 0.0000000000000000e+00 -7.0464548492396929e+01 -2.4612567582958143e+01 -1.3267678215892735e+02 0 0 0
5542 159 4 0.0000000000000000e+00 -7.7819796498061820e+01 -1.8192934607255815e+01 -1.3550632356452587e+02 0 0 0
4444 127 4 0.0000000000000000e+00 -6.2523344842427527e+01 -2.9901564224175978e+01 -1.4267066454847961e+02 0 0 0
1629 47 2 0.0000000000000000e+00 -6.1954387240715313e+01 -1.9471640077769329e+01 -1.4090126731942402e+02 0 0 0
3023 87 2 0.0000000000000000e+00 -3.0273567763769915e+01 -1.7605804474646781e+01 -1.4268389621977758e+02 0 0 0
2090 60 1 0.0000000000000000e+00 -4.0702040172767944e+01 -2.9789511682301860e+01 -1.2982332457625807e+02 0 0 0
1645 47 2 0.0000000000000000e+00 -3.0856159733352104e+01 -2.3685431613621795e+01 -1.3044914918377046e+02 0 0 0
6298 180 4 0.0000000000000000e+00 -1.3067977500651054e+02 -1.0400924870190446e+01 -1.2967966060326435e+02 0 0 0
2554 73 2 0.0000000000000000e+00 -1.1946613768483051e+02 -9.3626073826795579e+00 -1.4255715574687443e+02 0 0 0
4746 136 4 0.0000000000000000e+00 -1.0091647064590560e+02 -1.1993637918894590e+01 -1.3484582860948623e+02 0 0 0
4745 136 4 0.0000000000000000e+00 -9.3813038194163113e+01 -1.6308997431588541e+01 -1.3965475255159421e+02 0 0 0
5541 159 3 0.0000000000000000e+00 -7.2998401648258067e+01 -1.2045082035765381e+01 -1.4142146258935026e+02 0 0 0
4548 130 4 0.0000000000000000e+00 -6.0878629238727790e+01 -7.3985739996978390e+00 -1.3371305054563547e+02 0 0 0
4547 130 3 0.0000000000000000e+00 -5.2717599032821390e+01 -1.3676270810820700e+01 -1.3308807378706564e+02 0 0 0
3021 87 1 0.0000000000000000e+00 -4.1721907781186637e+01 -1.2903599716454286e+01 -1.3275809816248898e+02 0 0 0
1620 47 2 0.0000000000000000e+00 -3.2966478695732704e+01 -1.0031954284484735e+01 -1.3590549612677071e+02 0 0 0
2553 73 2 0.0000000000000000e+00 -1.2526660935662278e+02 -3.1788159950162571e+00 -1.3796917333473499e+02 0 0 0
6297 180 3 0.0000000000000000e+00 -1.3166455278843608e+02 -1.5239194065150535e-01 -1.2934272805625895e+02 0 0 0
2552 73 1 0.0000000000000000e+00 -1.2045895260818246e+02 4.3011498957924760e-01 -1.3039871553694925e+02 0 0 0
4747 136 4 0.0000000000000000e+00 -1.0540057654256951e+02 -3.1771826536741821e+00 -1.3255892798406992e+02 0 0 0
2240 64 2 0.0000000000000000e+00 -9.3337640815014453e+01 9.1295453325202125e+00 -1.4222408195347671e+02 0 0 0
4549 130 4 0.0000000000000000e+00 -6.8836569760851532e+01 -1.3682691829310467e+00 -1.3388086926947761e+02 0 0 0
4550 130 4 0.0000000000000000e+00 -7.3231230995170421e+01 5.1572572013384557e+00 -1.3937687418819425e+02 0 0 0
3019 87 2 0.0000000000000000e+00 -4.8059080398101393e+01 6.3989505475871333e-01 -1.3069726812895516e+02 0 0 0
3018 87 2 0.0000000000000000e+00 -5.0702654869807276e+01 8.9306854144086483e+00 -1.3584648539140838e+02 0 0 0
2080 60 2 0.0000000000000000e+00 -1.0361764803412153e+02 1.6931546932717289e+01 -1.2958506435435137e+02 0 0 0
6315 181 4 0.0000000000000000e+00 -8.5668148172898341e+01 1.7793078277762238e+01 -1.3778391632858168e+02 0 0 0
6316 181 4 0.0000000000000000e+00 -8.6372875600301882e+01 1.1301531073325366e+01 -1.3033938026054108e+02 0 0 0
5534 159 3 0.0000000000000000e+00 -7.0686491389357130e+01 1.5812298433965632e+01 -1.3004684257742215e+02 0 0 0
5535 159 4 0.0000000000000000e+00 -6.6246750707581072e+01 1.1406009619792171e+01 -1.3717863358705597e+02 0 0 0
3017 87 2 0.0000000000000000e+00 -5.3883586563257616e+01 1.7233037023783012e+01 -1.4097127895162387e+02 0 0 0
4200 120 4 0.0000000000000000e+00 -9.6648007313392654e+01 -9.2729885164914776e+01 -1.1898037101057584e+02 0 0 0
4199 120 4 0.0000000000000000e+00 -8.7813378262368317e+01 -8.8266167317067769e+01 -1.2056246600434083e+02 0 0 0
4198 120 4 0.0000000000000000e+00 -7.8111268090080188e+01 -8.5474975844843357e+01 -1.1887293084321067e+02 0 0 0
1369 40 1 0.0000000000000000e+00 -7.5503761663675917e+01 -7.4881000449127967e+01 -1.1894138961943381e+02 0 0 0
6503 186 4 0.0000000000000000e+00 -6.1490720019732429e+01 -7.8141573297575690e+01 -1.2252275038027783e+02 0 0 0
771 23 2 0.0000000000000000e+00 -4.0202066274224897e+01 -7.4358311471627715e+01 -1.1641713531625369e+02 0 0 0
1371 40 2 0.0000000000000000e+00 -5.9811331926161969e+01 -6.5983930632046011e+01 -1.2807837407847666e+02 0 0 0
1370 40 2 0.0000000000000000e+00 -6.7611401385723369e+01 -7.1406950152666937e+01 -1.2420029874423028e+02 0 0 0
2221 64 2 0.0000000000000000e+00 -4.5114753660737783e+01 -6.3692749620296681e+01 -1.2793690084204306e+02 0 0 0
2220 64 2 0.0000000000000000e+00 -3.9947631515141090e+01 -6.0375885812101565e+01 -1.2110174658254935e+02 0 0 0
1378 40 2 0.0000000000000000e+00 -2.2202931989009215e+01 -6.9222878152877882e+01 -1.1709833035643000e+02 0 0 0
1377 40 2 0.0000000000000000e+00 -2.6937159091828132e+01 -6.1894089028126054e+01 -1.2288904017551944e+02 0 0 0
2094 60 2 0.0000000000000000e+00 -5.4525895930337995e+01 -4.6134358107001049e+01 -1.1733374749512976e+02 0 0 0
2093 60 2 0.0000000000000000e+00 -4.7330999641235429e+01 -4.8928894328891708e+01 -1.2366341679913926e+02 0 0 0
1376 40 1 0.0000000000000000e+00 -3.0506662724612163e+01 -5.4909008112760723e+01 -1.2863565259418112e+02 0 0 0
2219 64 2 0.0000000000000000e+00 -3.7254172227225531e+01 -5.1060678412671393e+01 -1.2148771145976409e+02 0 0 0
5545 159 4 0.0000000000000000e+00 -6.5844737777219692e+01 -3.2968976813029379e+01 -1.1581683324920519e+02 0 0 0
6332 181 3 0.0000000000000000e+00 -2.8500022741135098e+01 -4.4166514016799447e+01 -1.2619293750914370e+02 0 0 0
6331 181 4 0.0000000000000000e+00 -2.6636885869158210e+01 -3.9359103339973551e+01 -1.1803379776881503e+02 0 0 0
6330 181 4 0.0000000000000000e+00 -2.1776965166661306e+01 -3.1397689310440658e+01 -1.1975460509119527e+02 0 0 0
6511 187 4 0.0000000000000000e+00 -1.0812934102439132e+02 -2.6595666498550393e+01 -1.2290168100982463e+02 0 0 0
5544 159 4 0.0000000000000000e+00 -6.7380321138957299e+01 -2.9817086452385773e+01 -1.2520333120756476e+02 0 0 0
2089 60 2 0.0000000000000000e+00 -4.6600753300460759e+01 -2.4802507193851014e+01 -1.2243813302195302e+02 0 0 0
2088 60 2 0.0000000000000000e+00 -5.2163875441346612e+01 -1.9169796283464230e+01 -1.1701679382124513e+02 0 0 0
4544 130 4 0.0000000000000000e+00 -3.0469273832182754e+01 -1.9574012461883679e+01 -1.1944912879219714e+02 0 0 0
4543 130 4 0.0000000000000000e+00 -2.0388048261544661e+01 -1.9084325567465033e+01 -1.2112795128797976e+02 0 0 0
4749 136 4 0.0000000000000000e+00 -1.0342890843248892e+02 -5.4423310762134811e+00 -1.1624555462567750e+02 0 0 0
2083 60 1 0.0000000000000000e+00 -9.1627955300615284e+01 -7.9636374748158021e+00 -1.2225084212027561e+02 0 0 0
2084 60 2 0.0000000000000000e+00 -8.7486524945022481e+01 -1.4860888261261309e+01 -1.1590344424874876e+02 0 0 0
2209 64 1 0.0000000000000000e+00 -7.5805287088095042e+01 -8.0500983270357178e+00 -1.1971223455332718e+02 0 0 0
4546 130 4 0.0000000000000000e+00 -4.7248016198645061e+01 -1.3412284151375646e+01 -1.2505290959302981e+02 0 0 0
4545 130 4 0.0000000000000000e+00 -3.8853115977384881e+01 -1.4244812115686768e+01 -1.2044612042246891e+02 0 0 0
1619 47 2 0.0000000000000000e+00 -2.8558528199149237e+01 -6.4815342303800474e+00 -1.2749891133459435e+02 0 0 0
3020 87 2 0.0000000000000000e+00 -4.0007359908932088e+01 -3.9745455907102496e+00 -1.2869564573164379e+02 0 0 0
1618 47 2 0.0000000000000000e+00 -2.1561706357656789e+01 -7.1118293219804292e+00 -1.2063199465312414e+02 0 0 0
6296 180 4 0.0000000000000000e+00 -1.3012981333536237e+02 9.2447192548344681e+00 -1.2657196236679060e+02 0 0 0
2551 73 2 0.0000000000000000e+00 -1.1893161040332593e+02 -4.0349537307294991e-01 -1.2053024878769088e+02 0 0 0
4748 136 4 0.0000000000000000e+00 -1.0848355599605740e+02 -4.3358425044165622e-01 -1.2329022052695265e+02 0 0 0
2081 60 2 0.0000000000000000e+00 -9.7646453384263026e+01 9.1571330032649207e+00 -1.2723607664317862e+02 0 0 0
2082 60 2 0.0000000000000000e+00 -9.2063585102804339e+01 8.5165506811121894e-01 -1.2679278178490326e+02 0 0 0
2208 64 2 0.0000000000000000e+00 -8.3254270516735943e+01 -1.8882824022346418e+00 -1.1627049126372749e+02 0 0 0
2207 64 2 0.0000000000000000e+00 -8.7620777202290071e+01 6.9553558398478081e+00 -1.1877914302382484e+02 0 0 0
6318 181 3 0.0000000000000000e+00 -7.1317637509758029e+01 1.1612991573471589e+00 -1.2270219664436117e+02 0 0 0
6317 181 4 0.0000000000000000e+00 -7.8940346482738008e+01 5.1933552951155555e+00 -1.2734329083224662e+02 0 0 0
6295 180 4 0.0000000000000000e+00 -1.2594750718145364e+02 1.6471692719754028e+01 -1.2060242019185313e+02 0 0 0
6294 180 4 0.0000000000000000e+00 -1.3216005057544328e+02 2.3827974825274655e+01 -1.1765512805307573e+02 0 0 0
2206 64 2 0.0000000000000000e+00 -8.7530298103481783e+01 1.6810588314959702e+01 -1.1864506372606124e+02 0 0 0
5533 159 4 0.0000000000000000e+00 -7.8767765489429848e+01 1.9344640552463943e+01 -1.2557339747597374e+02 0 0 0
5532 159 4 0.0000000000000000e+00 -7.8528150940017710e+01 1.4736175650485281e+01 -1.1700535119685077e+02 0 0 0
1367 40 2 0.0000000000000000e+00 -8.4628157251932095e+01 -8.4742792129983968e+01 -1.0561421958293346e+02 0 0 0
1368 40 2 0.0000000000000000e+00 -8.1234078400334937e+01 -7.7428218082565877e+01 -1.1158721068099456e+02 0 0 0
4197 120 3 0.0000000000000000e+00 -7.2248200786161007e+01 -8.3035225152720386e+01 -1.1150798807928940e+02 0 0 0
6502 186 4 0.0000000000000000e+00 -5.7785431090636607e+01 -7.4329617506348001e+01 -1.1470635737068788e+02 0 0 0
4196 120 4 0.0000000000000000e+00 -6.6650451321656547e+01 -8.3513508657034834e+01 -1.0361104458776113e+02 0 0 0
772 23 2 0.0000000000000000e+00 -3.6941312531098859e+01 -7.4610849616895237e+01 -1.0677244235092016e+02 0 0 0
6500 186 3 0.0000000000000000e+00 -5.9697379686533218e+01 -5.9905363411454623e+01 -1.0552660223320161e+02 0 0 0
6501 186 4 0.0000000000000000e+00 -5.4413976575440095e+01 -6.6085801307660233e+01 -1.1107206205488306e+02 0 0 0
1379 40 2 0.0000000000000000e+00 -2.7065941393675647e+01 -6.8389210247764467e+01 -1.0820124975938037e+02 0 0 0
2524 73 1 0.0000000000000000e+00 -1.2464771731149462e+02 -5.0098036033764167e+01 -1.0737563392491747e+02 0 0 0
2525 73 2 0.0000000000000000e+00 -1.1806458123577005e+02 -5.7605213842108128e+01 -1.0689424681278302e+02 0 0 0
6495 186 4 0.0000000000000000e+00 -1.0490307659656672e+02 -5.4372684842558449e+01 -1.0228154288448462e+02 0 0 0
2096 60 2 0.0000000000000000e+00 -7.1346141777762554e+01 -4.6829642835698742e+01 -1.0917445061095378e+02 0 0 0
6498 186 4 0.0000000000000000e+00 -7.6945388460778076e+01 -5.4754203802967481e+01 -1.0315352011901477e+02 0 0 0
6499 186 4 0.0000000000000000e+00 -6.7396703741420055e+01 -5.4089522709540525e+01 -1.0320562452715919e+02 0 0 0
2095 60 2 0.0000000000000000e+00 -6.2860334866014760e+01 -4.9580933559031898e+01 -1.1339940995805442e+02 0 0 0
2216 64 1 0.0000000000000000e+00 -5.4492495329572741e+01 -5.0699752609260706e+01 -1.0228969871703411e+02 0 0 0
2217 64 2 0.0000000000000000e+00 -4.8378627796066070e+01 -5.5561698751205029e+01 -1.0793476483204566e+02 0 0 0
2218 64 2 0.0000000000000000e+00 -3.9346890294222419e+01 -5.3104378165024734e+01 -1.1190520789429763e+02 0 0 0
2521 73 2 0.0000000000000000e+00 -1.4036812299654332e+02 -3.2702801515723664e+01 -1.0553577954812421e+02 0 0 0
2523 73 2 0.0000000000000000e+00 -1.2363664599023124e+02 -4.0643226417146764e+01 -1.0251193591209022e+02 0 0 0
2522 73 2 0.0000000000000000e+00 -1.3080976906253485e+02 -3.5733029311194777e+01 -1.0746584519400869e+02 0 0 0
6513 187 4 0.0000000000000000e+00 -9.6500871788190452e+01 -3.4765348897846771e+01 -1.1003913211258310e+02 0 0 0
6514 187 3 0.0000000000000000e+00 -8.6995525431676299e+01 -3.7389809010463630e+01 -1.0800038878393795e+02 0 0 0
2097 60 1 0.0000000000000000e+00 -7.7036035463031595e+01 -4.0743605679892731e+01 -1.0394315688728076e+02 0 0 0
5546 159 4 0.0000000000000000e+00 -6.3698615571219108e+01 -3.8194174051837194e+01 -1.0778982597782432e+02 0 0 0
2215 64 2 0.0000000000000000e+00 -5.4328107056894687e+01 -4.1842434524425649e+01 -1.0689487044735803e+02 0 0 0
2214 64 2 0.0000000000000000e+00 -4.9865260713464650e+01 -3.2833344220010702e+01 -1.0781110247109251e+02 0 0 0
4837 139 4 0.0000000000000000e+00 -1.6656113616832386e+01 -4.0368605988987710e+01 -1.0331448092845874e+02 0 0 0
6512 187 4 0.0000000000000000e+00 -1.0384164328155785e+02 -2.9152797799004365e+01 -1.1410295026168863e+02 0 0 0
6515 187 4 0.0000000000000000e+00 -8.4154823965057744e+01 -2.8704751927241489e+01 -1.0417079861580757e+02 0 0 0
2087 60 2 0.0000000000000000e+00 -6.0600218348508371e+01 -1.9688740435120938e+01 -1.1089412205647830e+02 0 0 0
2213 64 2 0.0000000000000000e+00 -4.8774689810700956e+01 -2.3333475730664869e+01 -1.0580520328753968e+02 0 0 0
6328 181 4 0.0000000000000000e+00 -2.0197434487316368e+01 -1.8637036574669594e+01 -1.0754934872882650e+02 0 0 0
6329 181 4 0.0000000000000000e+00 -1.7001168897210089e+01 -2.5319148815607708e+01 -1.1351339987278597e+02 0 0 0
4751 136 4 0.0000000000000000e+00 -9.6543288902400903e+01 -5.7125137145136407e+00 -1.0263516150677331e+02 0 0 0
4750 136 3 0.0000000000000000e+00 -9.4883450792952544e+01 -9.0971162555432947e+00 -1.1157441783985063e+02 0 0 0
2086 60 2 0.0000000000000000e+00 -6.9618787929409365e+01 -1.7494982264185861e+01 -1.0683153005357899e+02 0 0 0
2085 60 2 0.0000000000000000e+00 -7.9252531662405190e+01 -1.6576964576568034e+01 -1.0962725814226607e+02 0 0 0
2210 64 2 0.0000000000000000e+00 -6.7208797374241328e+01 -1.1403631396964697e+01 -1.1483654547817579e+02 0 0 0
2211 64 2 0.0000000000000000e+00 -6.0828337175696348e+01 -9.7676646369783739e+00 -1.0694524536837361e+02 0 0 0
2212 64 2 0.0000000000000000e+00 -5.5519318456730481e+01 -1.6887622502385405e+01 -1.0241293189007008e+02 0 0 0
1536 44 2 0.0000000000000000e+00 -3.7139384935401715e+01 -3.8984275278066809e+00 -1.0520784588040885e+02 0 0 0
1617 47 2 0.0000000000000000e+00 -1.4998385308389372e+01 -1.0702021960923181e+01 -1.1404678870381639e+02 0 0 0
2549 73 2 0.0000000000000000e+00 -1.2417614378958078e+02 -2.8164207778026280e+00 -1.0542293723729243e+02 0 0 0
2550 73 2 0.0000000000000000e+00 -1.2530482610151806e+02 3.4044855624477210e+00 -1.1363731105898204e+02 0 0 0
5531 159 4 0.0000000000000000e+00 -7.9029741347992569e+01 6.5708922890231474e+00 -1.1122830075550293e+02 0 0 0
6319 181 4 0.0000000000000000e+00 -6.6941932026693905e+01 1.2240735121300930e+00 -1.1334489612402962e+02 0 0 0
6320 181 4 0.0000000000000000e+00 -6.4872492838420726e+01 3.4743926296535954e+00 -1.0362073664130175e+02 0 0 0
1535 44 2 0.0000000000000000e+00 -3.4686733609088805e+01 5.2146704125902517e+00 -1.0898728379423144e+02 0 0 0
3314 95 2 0.0000000000000000e+00 -1.0991649689495671e+02 1.6120013815974019e+01 -1.0634681487542566e+02 0 0 0
6336 182 4 0.0000000000000000e+00 -1.1438244942590434e+02 2.2803117890023806e+01 -1.1269651867766100e+02 0 0 0
3313 95 2 0.0000000000000000e+00 -1.1589437105938076e+02 2.3252136295477420e+01 -1.0283448881644014e+02 0 0 0
3315 95 1 0.0000000000000000e+00 -1.0352105662409214e+02 2.0309383529639604e+01 -1.1260849070154099e+02 0 0 0
3729 107 4 0.0000000000000000e+00 -9.2234303059281686e+01 1.7455106457874066e+01 -1.0252047178698562e+02 0 0 0
3199 92 2 0.0000000000000000e+00 -7.8491557836912378e+01 1.5388707289993716e+01 -1.0528194111022611e+02 0 0 0
3200 92 2 0.0000000000000000e+00 -8.1021662848727303e+01 2.3013078103881778e+01 -1.1154361013463790e+02 0 0 0
1534 44 2 0.0000000000000000e+00 -2.9105385164706671e+01 1.3963254563914772e+01 -1.0872698360818545e+02 0 0 0
1533 44 2 0.0000000000000000e+00 -2.6872382783971617e+01 2.3365135605210401e+01 -1.1120274836124804e+02 0 0 0
2815 81 2 0.0000000000000000e+00 -4.7938919675756075e+01 -1.2829814708430283e+02 -9.3673520739610794e+01 0 0 0
2814 81 2 0.0000000000000000e+00 -3.9587823104022618e+01 -1.3326363272288864e+02 -9.0535833944251351e+01 0 0 0
3993 115 4 0.0000000000000000e+00 -3.1882889669766580e+01 -1.1507410593751746e+02 -9.0027006374130636e+01 0 0 0
3991 115 4 0.0000000000000000e+00 -3.8343137276606818e+01 -1.1053733438380750e+02 -9.9315551481576392e+01 0 0 0
3992 115 4 0.0000000000000000e+00 -2.8807495545238080e+01 -1.1275104802832891e+02 -9.9199384490366540e+01 0 0 0
4831 139 4 0.0000000000000000e+00 -2.2104932514103194e+01 -9.1541808279214806e+01 -9.4943797782869225e+01 0 0 0
2528 73 2 0.0000000000000000e+00 -1.2365486667368933e+02 -7.9974374311037863e+01 -9.0023032674550478e+01 0 0 0
2527 73 2 0.0000000000000000e+00 -1.1758476351155703e+02 -7.3022800496026633e+01 -9.4159613536747628e+01 0 0 0
2539 73 2 0.0000000000000000e+00 -9.9366362504669155e+01 -7.5492894174382229e+01 -9.2249721255941623e+01 0 0 0
1366 40 2 0.0000000000000000e+00 -9.2994802815302592e+01 -8.5140536765593765e+01 -9.9512152636245517e+01 0 0 0
4195 120 4 0.0000000000000000e+00 -6.2278052308376537e+01 -8.2104836955560927e+01 -9.4334996765004931e+01 0 0 0
773 23 2 0.0000000000000000e+00 -3.7546653738940250e+01 -7.3027240523382630e+01 -9.7066239795105901e+01 0 0 0
4832 139 4 0.0000000000000000e+00 -1.9339923652404966e+01 -8.1747339842888962e+01 -9.3777274547798015e+01 0 0 0
2526 73 2 0.0000000000000000e+00 -1.1689893090626641e+02 -6.6683585047001543e+01 -1.0139841839869813e+02 0 0 0
2540 73 2 0.0000000000000000e+00 -9.9564171186762209e+01 -6.6302774205002876e+01 -9.7002229545099880e+01 0 0 0
2541 73 2 0.0000000000000000e+00 -9.9336728773940749e+01 -6.1162428135652256e+01 -8.7830798063530167e+01 0 0 0
1382 40 2 0.0000000000000000e+00 -4.9766059905834695e+01 -6.0772216199405491e+01 -9.0705318827869192e+01 0 0 0
1380 40 2 0.0000000000000000e+00 -3.2602223657312948e+01 -6.4682920577282530e+01 -1.0003284765620300e+02 0 0 0
1381 40 2 0.0000000000000000e+00 -4.0808755024609248e+01 -6.1182230308591734e+01 -9.4245378756610279e+01 0 0 0
4833 139 4 0.0000000000000000e+00 -2.2001728726629533e+01 -7.1953521443810416e+01 -9.6382556148479694e+01 0 0 0
4834 139 3 0.0000000000000000e+00 -2.5996959226410446e+01 -6.5842218318112870e+01 -8.9717192528366922e+01 0 0 0
6492 186 4 0.0000000000000000e+00 -1.3410864115285023e+02 -5.2318470026982844e+01 -9.7888656081111463e+01 0 0 0
6493 186 3 0.0000000000000000e+00 -1.2442699207868920e+02 -5.6074097333291931e+01 -9.7650701309606802e+01 0 0 0
6494 186 4 0.0000000000000000e+00 -1.1470555461429855e+02 -5.3727026429039981e+01 -9.9370690407394207e+01 0 0 0
6496 186 4 0.0000000000000000e+00 -9.5618398407816642e+01 -5.4618014491312408e+01 -9.9463513216943966e+01 0 0 0