LAMMPS data file via write_data, version 5 Jun 2019, timestep = 330000000

7000 atoms
4 atom types
7285 bonds
3 bond types
6600 angles
2 angle types

-5.0000000000000000e+02 5.0000000000000000e+02 xlo xhi
-5.0000000000000000e+02 5.0000000000000000e+02 ylo yhi
-5.0000000000000000e+02 5.0000000000000000e+02 zlo zhi

Masses

1 1000
2 1000
3 1000
4 1000

Pair Coeffs # lj/cut

1 0.178 10
2 0.178 10
3 0.178 10
4 0.178 10

Angle Coeffs # cosine

1 2
2 2

Atoms # full

2232 64 2 0.0000000000000000e+00 -7.2607410495217437e+01 -3.0346019591341889e+01 -1.8946656385460867e+02 0 0 0
2233 64 2 0.0000000000000000e+00 -6.8530375269524598e+01 -2.1274335708030737e+01 -1.9041565871016758e+02 0 0 0
4443 127 4 0.0000000000000000e+00 -6.5165205268068490e+01 -4.0054152791879609e+01 -1.7622293507949300e+02 0 0 0
2231 64 2 0.0000000000000000e+00 -7.5539637696214498e+01 -3.5550648166421134e+01 -1.8103399825140880e+02 0 0 0
4441 127 4 0.0000000000000000e+00 -7.6956169280595731e+01 -2.6016818031341693e+01 -1.7707295562215893e+02 0 0 0
2234 64 2 0.0000000000000000e+00 -6.2193139787841083e+01 -1.9687989936986252e+01 -1.8222907222503594e+02 0 0 0
4741 136 4 0.0000000000000000e+00 -6.1128546148771115e+01 -9.3444379903751482e+00 -1.7913025554145764e+02 0 0 0
4740 136 4 0.0000000000000000e+00 -5.3194063151155284e+01 -2.3534501719124901e+00 -1.7894744588692160e+02 0 0 0
4739 136 4 0.0000000000000000e+00 -4.3725909426701151e+01 1.1936759933889036e+00 -1.7787120365286302e+02 0 0 0
4737 136 4 0.0000000000000000e+00 -2.5132236994986847e+01 2.2492153739161393e+00 -1.7588620313352584e+02 0 0 0
3011 87 2 0.0000000000000000e+00 -9.6117798119541476e+01 2.9051922898396029e+01 -1.8361710985069530e+02 0 0 0
3012 87 2 0.0000000000000000e+00 -8.6329937388580092e+01 2.8258794426271379e+01 -1.8055490092398833e+02 0 0 0
4445 127 4 0.0000000000000000e+00 -6.8389590619588915e+01 -5.5369013493281138e+01 -1.6915150290381339e+02 0 0 0
1633 47 2 0.0000000000000000e+00 -3.8881089984025749e+01 -5.4871055602329015e+01 -1.6232567465541078e+02 0 0 0
1635 47 1 0.0000000000000000e+00 -2.5096873972979260e+01 -5.1631356476462408e+01 -1.6378434623134225e+02 0 0 0
2230 64 1 0.0000000000000000e+00 -7.7140823851306777e+01 -3.7057823282637372e+01 -1.7117705783603270e+02 0 0 0
4444 127 4 0.0000000000000000e+00 -6.2988849091528635e+01 -4.7051931270136052e+01 -1.6895218206786268e+02 0 0 0
4442 127 3 0.0000000000000000e+00 -6.8494181248038103e+01 -3.0609536781525357e+01 -1.7426811986533102e+02 0 0 0
2235 64 2 0.0000000000000000e+00 -5.9225544123360343e+01 -2.3134541134051741e+01 -1.7336901344643502e+02 0 0 0
4744 136 4 0.0000000000000000e+00 -8.0890775469846247e+01 -1.7117561330245543e+01 -1.6271914370461946e+02 0 0 0
4440 127 4 0.0000000000000000e+00 -7.7995320872993375e+01 -1.6830628224908939e+01 -1.7364433796433332e+02 0 0 0
4743 136 3 0.0000000000000000e+00 -7.3267057477220661e+01 -1.2305813651219095e+01 -1.6533477691841847e+02 0 0 0
4742 136 4 0.0000000000000000e+00 -6.4896065853450239e+01 -1.2216861355929426e+01 -1.7060906729061699e+02 0 0 0
2236 64 2 0.0000000000000000e+00 -6.2062846911772759e+01 -2.1077749317182082e+01 -1.6402167599739596e+02 0 0 0
5915 169 4 0.0000000000000000e+00 -1.2427497547432512e+02 -3.6744793575196142e+00 -1.6911999181513977e+02 0 0 0
5914 169 4 0.0000000000000000e+00 -1.1525165437205226e+02 -2.0283492323121357e+00 -1.6771963572437767e+02 0 0 0
4439 127 4 0.0000000000000000e+00 -8.2219112562862264e+01 -8.1166465022605507e+00 -1.7030730763623660e+02 0 0 0
4438 127 4 0.0000000000000000e+00 -7.7213295893017076e+01 -8.3509099020249200e-01 -1.6471616507586529e+02 0 0 0
1626 47 2 0.0000000000000000e+00 -5.2270269085286465e+01 1.7989786125301626e+00 -1.6635242517580861e+02 0 0 0
4738 136 4 0.0000000000000000e+00 -3.4471262694251145e+01 -1.5467403085225646e+00 -1.7473970229120539e+02 0 0 0
1623 47 2 0.0000000000000000e+00 -2.8457263396385041e+01 1.2806246481685979e+00 -1.6507508104796906e+02 0 0 0
5913 169 4 0.0000000000000000e+00 -1.1111442249655401e+02 6.7402074846043316e+00 -1.6395370376232489e+02 0 0 0
4437 127 4 0.0000000000000000e+00 -7.5844295946079527e+01 8.5928859461695914e+00 -1.6172496081835737e+02 0 0 0
3016 87 2 0.0000000000000000e+00 -5.5549524980201397e+01 1.7462930689830930e+01 -1.6245460473031022e+02 0 0 0
1625 47 2 0.0000000000000000e+00 -4.5636331966241812e+01 9.6174139165248071e+00 -1.6809250082452385e+02 0 0 0
1624 47 2 0.0000000000000000e+00 -3.6635072678867836e+01 6.0234557747530122e+00 -1.6716129796778299e+02 0 0 0
3013 87 2 0.0000000000000000e+00 -7.9366005362423351e+01 2.4776419917491985e+01 -1.7348260165905373e+02 0 0 0
3014 87 1 0.0000000000000000e+00 -6.9673913007923744e+01 2.7219699409440505e+01 -1.7267683317458892e+02 0 0 0
4435 127 3 0.0000000000000000e+00 -7.3210146958756411e+01 2.7089042248558457e+01 -1.6271996717155920e+02 0 0 0
3015 87 2 0.0000000000000000e+00 -6.1812745747320200e+01 2.2544711718812053e+01 -1.6857309445060136e+02 0 0 0
6308 181 4 0.0000000000000000e+00 -9.0874452220591010e+01 3.5014561849130992e+01 -1.6572621035029286e+02 0 0 0
4433 127 4 0.0000000000000000e+00 -8.2885916415309424e+01 4.0301161974860626e+01 -1.7061313248966255e+02 0 0 0
4434 127 4 0.0000000000000000e+00 -7.6057869402046876e+01 3.6230068217270869e+01 -1.6479474623594797e+02 0 0 0
5432 156 4 0.0000000000000000e+00 -4.2397574080149226e+01 -6.7424746379726074e+01 -1.5391171149891071e+02 0 0 0
5433 156 4 0.0000000000000000e+00 -3.2274191107115982e+01 -6.8627598226115921e+01 -1.5529927045098663e+02 0 0 0
5431 156 4 0.0000000000000000e+00 -4.9192247834496179e+01 -5.9803055248543288e+01 -1.5421978914210592e+02 0 0 0
2628 76 2 0.0000000000000000e+00 -2.6349790629634342e+01 -5.9887466564704127e+01 -1.5008009520512675e+02 0 0 0
2229 64 2 0.0000000000000000e+00 -7.6888747186420687e+01 -3.8056691152109437e+01 -1.6152726896980889e+02 0 0 0
2228 64 2 0.0000000000000000e+00 -7.3666570951104518e+01 -4.4041639309226348e+01 -1.5478052933031879e+02 0 0 0
1631 47 2 0.0000000000000000e+00 -5.0655761392468570e+01 -4.0352799540228908e+01 -1.5592865280112036e+02 0 0 0
1632 47 2 0.0000000000000000e+00 -4.3575241223445246e+01 -4.7328278735099389e+01 -1.5739749977382851e+02 0 0 0
1634 47 2 0.0000000000000000e+00 -3.2809808127312934e+01 -4.7711816873784095e+01 -1.5843743013987910e+02 0 0 0
2626 76 2 0.0000000000000000e+00 -3.5725584172436257e+01 -4.3642442354156735e+01 -1.4941037748037218e+02 0 0 0
2627 76 2 0.0000000000000000e+00 -2.8242984549632975e+01 -4.9863479149455287e+01 -1.5060051646328660e+02 0 0 0
2240 64 2 0.0000000000000000e+00 -8.4668984406658495e+01 -3.4052533003220951e+01 -1.5347214593121473e+02 0 0 0
2239 64 2 0.0000000000000000e+00 -8.0643967672917185e+01 -2.5867131459778236e+01 -1.4988268721059973e+02 0 0 0
5542 159 4 0.0000000000000000e+00 -6.2277960101976333e+01 -2.5167333554656569e+01 -1.5292953575404559e+02 0 0 0
1630 47 2 0.0000000000000000e+00 -5.4239351988244437e+01 -3.2167984579341969e+01 -1.5261356657226165e+02 0 0 0
1629 47 2 0.0000000000000000e+00 -5.1545367808266448e+01 -2.3047800455814638e+01 -1.5100001685259198e+02 0 0 0
4745 136 4 0.0000000000000000e+00 -8.7436686170136824e+01 -2.0074860195062048e+01 -1.5549417477268932e+02 0 0 0
2238 64 2 0.0000000000000000e+00 -7.7190165306661285e+01 -1.6696966713376050e+01 -1.5119653033645608e+02 0 0 0
2237 64 1 0.0000000000000000e+00 -7.0295533081063724e+01 -2.0438520138577832e+01 -1.5818136614190379e+02 0 0 0
5541 159 3 0.0000000000000000e+00 -6.1972296697093824e+01 -1.5739685519601320e+01 -1.5511922767470207e+02 0 0 0
1628 47 1 0.0000000000000000e+00 -5.0781880730073425e+01 -1.4186037066446017e+01 -1.5482739087128448e+02 0 0 0
3021 87 1 0.0000000000000000e+00 -2.9634736550813702e+01 -2.0177095368468393e+01 -1.5337581727823164e+02 0 0 0
3020 87 2 0.0000000000000000e+00 -3.3959264861802929e+01 -1.2226969517906936e+01 -1.5815089323193916e+02 0 0 0
6312 181 4 0.0000000000000000e+00 -1.0438468503640138e+02 4.2694266833875831e+00 -1.5137268150498534e+02 0 0 0
5539 159 4 0.0000000000000000e+00 -6.9269696072408863e+01 -9.3170249046406417e-01 -1.4844273070362692e+02 0 0 0
5540 159 4 0.0000000000000000e+00 -6.7388783291080529e+01 -8.3780478693764806e+00 -1.5390294247207103e+02 0 0 0
1627 47 2 0.0000000000000000e+00 -5.5511181934208309e+01 -6.4951750469417906e+00 -1.6009443188397634e+02 0 0 0
3018 87 2 0.0000000000000000e+00 -4.7686992301297821e+01 2.6505564366444945e-01 -1.5691518909053906e+02 0 0 0
3019 87 2 0.0000000000000000e+00 -3.8474448403247933e+01 -3.0852213250531801e+00 -1.5869956304799203e+02 0 0 0
2070 60 2 0.0000000000000000e+00 -1.2212431052307427e+02 5.8702240471758769e+00 -1.4812022292331534e+02 0 0 0
2069 60 1 0.0000000000000000e+00 -1.1885015195297933e+02 1.3385376972705105e+01 -1.5349529580117922e+02 0 0 0
5912 169 3 0.0000000000000000e+00 -1.0843097079603308e+02 1.4242260506006117e+01 -1.5808843527450770e+02 0 0 0
6311 181 3 0.0000000000000000e+00 -9.8118752985317855e+01 1.2349147951319967e+01 -1.5198902000640462e+02 0 0 0
4436 127 4 0.0000000000000000e+00 -7.3683052859563432e+01 1.7939788077235470e+01 -1.5811200273260860e+02 0 0 0
3017 87 2 0.0000000000000000e+00 -5.3633024892681433e+01 8.3721552330268416e+00 -1.5821343908140031e+02 0 0 0
2068 60 2 0.0000000000000000e+00 -1.1820687833577250e+02 2.2940054490111656e+01 -1.5055188351955616e+02 0 0 0
2067 60 2 0.0000000000000000e+00 -1.1428173916720763e+02 3.0359459668202813e+01 -1.5593416235092991e+02 0 0 0
6310 181 4 0.0000000000000000e+00 -9.3578241726365803e+01 2.0081622049307200e+01 -1.5425220599091239e+02 0 0 0
5911 169 4 0.0000000000000000e+00 -1.0319702787614258e+02 2.1445053972563628e+01 -1.5335335426809243e+02 0 0 0
5910 169 4 0.0000000000000000e+00 -9.7264044394456903e+01 2.7491643948777618e+01 -1.4839559789295402e+02 0 0 0
6309 181 4 0.0000000000000000e+00 -9.2370366805221991e+01 2.8928267852043163e+01 -1.5813866069080709e+02 0 0 0
2066 60 2 0.0000000000000000e+00 -1.1382210668129605e+02 4.0169403065996796e+01 -1.5394063532386130e+02 0 0 0
6307 181 4 0.0000000000000000e+00 -9.1436974910363418e+01 4.4201263428847497e+01 -1.6125057035034808e+02 0 0 0
6181 177 4 0.0000000000000000e+00 -4.8087364522683011e+01 4.1481076179377943e+01 -1.4935545480488051e+02 0 0 0
6510 186 4 0.0000000000000000e+00 -3.6227159447965114e+01 -7.9307576943449192e+01 -1.4537865338744385e+02 0 0 0
6509 186 4 0.0000000000000000e+00 -3.9116993537873917e+01 -7.2925844871320152e+01 -1.3836756549979336e+02 0 0 0
5430 156 4 0.0000000000000000e+00 -4.9473295934690107e+01 -5.1773771609250964e+01 -1.4777830624700019e+02 0 0 0
6511 187 4 0.0000000000000000e+00 -8.0537601533774961e+01 -4.8491411426325897e+01 -1.4797016422788519e+02 0 0 0
6512 187 4 0.0000000000000000e+00 -8.0164837416716935e+01 -4.6660188175000535e+01 -1.3806139526840479e+02 0 0 0
2227 64 2 0.0000000000000000e+00 -7.0674272627848950e+01 -4.4110379717802154e+01 -1.4544920148155092e+02 0 0 0
2226 64 2 0.0000000000000000e+00 -6.4183234021872664e+01 -4.9452383278339617e+01 -1.4074378738978925e+02 0 0 0
2225 64 2 0.0000000000000000e+00 -5.4141232448019018e+01 -4.9641635637200551e+01 -1.3828794335371930e+02 0 0 0
2090 60 1 0.0000000000000000e+00 -5.1558252585995426e+01 -3.8951812498451780e+01 -1.3597923673059196e+02 0 0 0
5429 156 3 0.0000000000000000e+00 -4.5357000951273832e+01 -4.4315836522219350e+01 -1.4385608705808141e+02 0 0 0
4545 130 4 0.0000000000000000e+00 -2.7916455077540938e+01 -4.1071072302107211e+01 -1.4529534906658193e+02 0 0 0
4747 136 4 0.0000000000000000e+00 -9.8475790327983830e+01 -2.4116338710253530e+01 -1.3935663556352699e+02 0 0 0
5544 159 4 0.0000000000000000e+00 -6.5759565394583987e+01 -3.6268986112041567e+01 -1.3748526253893013e+02 0 0 0
5543 159 4 0.0000000000000000e+00 -6.3631273454094362e+01 -3.2921215044109040e+01 -1.4616627915172981e+02 0 0 0
5428 156 4 0.0000000000000000e+00 -4.3742016249782360e+01 -3.5167392051834440e+01 -1.4092904748438801e+02 0 0 0
4546 130 4 0.0000000000000000e+00 -3.2260731488220841e+01 -3.2116368907373996e+01 -1.4409464293601735e+02 0 0 0
4746 136 4 0.0000000000000000e+00 -9.3147661874440672e+01 -2.0979890090898664e+01 -1.4730599200136214e+02 0 0 0
4550 130 4 0.0000000000000000e+00 -4.8896743828075657e+01 -1.3656723053646646e+01 -1.3760032092497485e+02 0 0 0
4547 130 3 0.0000000000000000e+00 -3.1430388502319293e+01 -2.2191098614738792e+01 -1.4183219668914910e+02 0 0 0
4548 130 4 0.0000000000000000e+00 -3.3368951791396718e+01 -1.4928054329582128e+01 -1.3527444500109962e+02 0 0 0
2072 60 2 0.0000000000000000e+00 -1.0554151390401324e+02 2.8293288751881782e+00 -1.3825598349364734e+02 0 0 0
6313 181 4 0.0000000000000000e+00 -9.7083355976855415e+01 3.7934759614488273e-01 -1.4595606163490271e+02 0 0 0
6314 181 4 0.0000000000000000e+00 -9.0370342163783590e+01 -4.8989922944828299e+00 -1.4256592660936053e+02 0 0 0
6315 181 4 0.0000000000000000e+00 -8.0446822472441752e+01 -4.4846958385670925e+00 -1.4084237159370750e+02 0 0 0
6316 181 4 0.0000000000000000e+00 -7.1382209085077946e+01 -5.5721828064856540e+00 -1.3698587070762977e+02 0 0 0
4549 130 4 0.0000000000000000e+00 -4.0496321171841245e+01 -8.5218293061474455e+00 -1.3595842566442599e+02 0 0 0
2071 60 2 0.0000000000000000e+00 -1.1280706476223793e+02 5.3763845812990914e+00 -1.4477130221357919e+02 0 0 0
2076 60 1 0.0000000000000000e+00 -8.8125586338354907e+01 1.1684669468556592e+01 -1.4649000742365232e+02 0 0 0
2075 60 2 0.0000000000000000e+00 -8.9215756587591500e+01 6.8056020839381226e+00 -1.3795456307691424e+02 0 0 0
5538 159 4 0.0000000000000000e+00 -7.3413529481297545e+01 5.2674102118019466e+00 -1.4240933187990481e+02 0 0 0
2077 60 2 0.0000000000000000e+00 -9.5272630622371182e+01 1.8436925894808610e+01 -1.4359899215512019e+02 0 0 0
2078 60 2 0.0000000000000000e+00 -9.2178678568056739e+01 2.5159675001755545e+01 -1.3742595860447119e+02 0 0 0
6184 177 4 0.0000000000000000e+00 -6.5856925852707803e+01 2.7729608980206059e+01 -1.3479715171722108e+02 0 0 0
6183 177 4 0.0000000000000000e+00 -5.6391465406736017e+01 2.9599607332288777e+01 -1.3735087972933687e+02 0 0 0
580 17 2 0.0000000000000000e+00 -1.1451560025262600e+02 4.4062452274259577e+01 -1.4030775317588268e+02 0 0 0
5909 169 4 0.0000000000000000e+00 -9.1148650935357438e+01 3.3009186987432891e+01 -1.4301834891714927e+02 0 0 0
5908 169 4 0.0000000000000000e+00 -8.6233368786779067e+01 3.3911033013068931e+01 -1.3506596293931403e+02 0 0 0
6182 177 4 0.0000000000000000e+00 -5.2780531250649055e+01 3.2948971495658832e+01 -1.4618548712872075e+02 0 0 0
1366 40 2 0.0000000000000000e+00 -5.7207456256539395e+01 -7.7522728216313155e+01 -1.2744047561627156e+02 0 0 0
1373 40 2 0.0000000000000000e+00 -8.6071718006428540e+01 -7.5782798395024358e+01 -1.2550809728033403e+02 0 0 0
1374 40 2 0.0000000000000000e+00 -7.8369714704071427e+01 -7.6144888563401054e+01 -1.3158642473201635e+02 0 0 0
1375 40 2 0.0000000000000000e+00 -7.8696520765763225e+01 -6.6862967569483672e+01 -1.2853177132390348e+02 0 0 0
6507 186 3 0.0000000000000000e+00 -5.4620693875561443e+01 -6.5646959092106158e+01 -1.2615062023788536e+02 0 0 0
6508 186 4 0.0000000000000000e+00 -4.7050456993556949e+01 -6.9385419932411139e+01 -1.3220680423283989e+02 0 0 0
6335 181 4 0.0000000000000000e+00 -1.0304111040996401e+02 -5.8072294151417893e+01 -1.2918651609039367e+02 0 0 0
6334 181 4 0.0000000000000000e+00 -9.4817015837464083e+01 -5.6407115312486376e+01 -1.2430002015814391e+02 0 0 0
1376 40 1 0.0000000000000000e+00 -7.1428998316507119e+01 -6.0883729254879078e+01 -1.2452181305224389e+02 0 0 0
1378 40 2 0.0000000000000000e+00 -5.3224426726882911e+01 -5.3746227999609388e+01 -1.2117045722563718e+02 0 0 0
1377 40 2 0.0000000000000000e+00 -6.2101847899409179e+01 -5.8334772815349922e+01 -1.2233113149397903e+02 0 0 0
2223 64 1 0.0000000000000000e+00 -4.5088286326139105e+01 -5.9882246903668289e+01 -1.2363860885193122e+02 0 0 0
2224 64 2 0.0000000000000000e+00 -5.0067164439111721e+01 -5.4914481302419958e+01 -1.3102876433847732e+02 0 0 0
2095 60 2 0.0000000000000000e+00 -8.4383686387499083e+01 -4.8927277670051453e+01 -1.2688989850110993e+02 0 0 0
2096 60 2 0.0000000000000000e+00 -8.9717274190960509e+01 -4.0560230586051446e+01 -1.2469450125132988e+02 0 0 0
6513 187 4 0.0000000000000000e+00 -8.1028283526977376e+01 -4.0583228678551265e+01 -1.3034762957467828e+02 0 0 0
2094 60 2 0.0000000000000000e+00 -7.5647267386052718e+01 -4.7412436695200519e+01 -1.2297665808936583e+02 0 0 0
2093 60 2 0.0000000000000000e+00 -6.5891825639617679e+01 -4.9681036525143533e+01 -1.2572232131333368e+02 0 0 0
2092 60 2 0.0000000000000000e+00 -5.7099670843030140e+01 -4.7420874221241711e+01 -1.2912982350722373e+02 0 0 0
2091 60 2 0.0000000000000000e+00 -4.9083202393206626e+01 -4.2300949670936618e+01 -1.2699976396841370e+02 0 0 0
5545 159 4 0.0000000000000000e+00 -6.7822690955991405e+01 -3.6199262666641872e+01 -1.2789790459162418e+02 0 0 0
6514 187 3 0.0000000000000000e+00 -7.7458914033024229e+01 -3.3763843038645469e+01 -1.2375699417052155e+02 0 0 0
2087 60 2 0.0000000000000000e+00 -7.3805753626735211e+01 -2.3631708200273128e+01 -1.3414000705709947e+02 0 0 0
2089 60 2 0.0000000000000000e+00 -5.7815140175055568e+01 -3.1774280699330774e+01 -1.3372734814710830e+02 0 0 0
2088 60 2 0.0000000000000000e+00 -6.3885885917589263e+01 -2.4046291710511362e+01 -1.3287830842395212e+02 0 0 0
5427 156 4 0.0000000000000000e+00 -3.9496512789809337e+01 -3.2280589258394969e+01 -1.3209450665047677e+02 0 0 0
5426 156 4 0.0000000000000000e+00 -4.3988129194072755e+01 -3.1636284658609540e+01 -1.2333826246245100e+02 0 0 0
4748 136 4 0.0000000000000000e+00 -1.0696939158666513e+02 -2.2224501348774673e+01 -1.3356192921769286e+02 0 0 0
4749 136 4 0.0000000000000000e+00 -1.0780861248511781e+02 -1.6053896872181319e+01 -1.2505091805672294e+02 0 0 0
2084 60 2 0.0000000000000000e+00 -9.8218313646683441e+01 -1.4021178621916967e+01 -1.2539092794606286e+02 0 0 0
2085 60 2 0.0000000000000000e+00 -9.3644293159211003e+01 -2.2269852450429774e+01 -1.2925543607466710e+02 0 0 0
2086 60 2 0.0000000000000000e+00 -8.3541149866037486e+01 -2.2479481801314801e+01 -1.3148803532886564e+02 0 0 0
2210 64 2 0.0000000000000000e+00 -5.4018580924135456e+01 -1.2529061118131002e+01 -1.2151328010939396e+02 0 0 0
2083 60 1 0.0000000000000000e+00 -1.0170849405361636e+02 -4.1584538919448528e+00 -1.2554529709544714e+02 0 0 0
2074 60 2 0.0000000000000000e+00 -8.9837387420293126e+01 3.6870578433344217e+00 -1.2757758743981226e+02 0 0 0
6317 181 4 0.0000000000000000e+00 -6.2131372432925239e+01 -5.9937752546082850e+00 -1.3369850704985191e+02 0 0 0
6318 181 3 0.0000000000000000e+00 -5.8459210041495531e+01 2.9157376445484040e+00 -1.3113169217245957e+02 0 0 0
2209 64 1 0.0000000000000000e+00 -5.5395900968819831e+01 -2.6881729007670021e+00 -1.2151143814288061e+02 0 0 0
2073 60 2 0.0000000000000000e+00 -9.7635338292549932e+01 5.4098290344855187e+00 -1.3283408781761625e+02 0 0 0
2082 60 2 0.0000000000000000e+00 -1.0371440665269697e+02 5.4396010425792278e+00 -1.2397371925968694e+02 0 0 0
2081 60 2 0.0000000000000000e+00 -1.0276602626558240e+02 1.4504193721302338e+01 -1.2163087114946042e+02 0 0 0
5537 159 4 0.0000000000000000e+00 -7.6460829964667155e+01 9.7511201419655453e+00 -1.3396304966657834e+02 0 0 0
6319 181 4 0.0000000000000000e+00 -4.9396662592763263e+01 5.2547101341533473e+00 -1.2644640233992919e+02 0 0 0
6320 181 4 0.0000000000000000e+00 -4.0877602787889323e+01 6.2820478184460917e+00 -1.2193321580264178e+02 0 0 0
2079 60 2 0.0000000000000000e+00 -9.5729842871797132e+01 2.7033714833080747e+01 -1.2820321347453933e+02 0 0 0
1804 52 2 0.0000000000000000e+00 -8.2663242984250317e+01 2.6122785333214772e+01 -1.2111210246248899e+02 0 0 0
5535 159 4 0.0000000000000000e+00 -7.2977346587987128e+01 1.9489719251709776e+01 -1.2297024874952426e+02 0 0 0
5536 159 4 0.0000000000000000e+00 -7.7891895977626149e+01 1.9497019052349831e+01 -1.3185920370535672e+02 0 0 0
6185 177 3 0.0000000000000000e+00 -6.2660499548232863e+01 2.9555432787257203e+01 -1.2527793448035779e+02 0 0 0
578 17 1 0.0000000000000000e+00 -1.1989355376553399e+02 3.9721009097136815e+01 -1.2362711779208897e+02 0 0 0
579 17 2 0.0000000000000000e+00 -1.1615151060173677e+02 3.8542622190465416e+01 -1.3252876145111856e+02 0 0 0
5905 169 3 0.0000000000000000e+00 -1.0929642455715897e+02 3.6839423358991837e+01 -1.2162154590058722e+02 0 0 0
5906 169 4 0.0000000000000000e+00 -1.0377665307044212e+02 4.0316844112771889e+01 -1.2845419320522385e+02 0 0 0
5907 169 4 0.0000000000000000e+00 -9.4776829338614519e+01 3.8019948987471665e+01 -1.3242796709488545e+02 0 0 0
1805 52 2 0.0000000000000000e+00 -7.9890727325837389e+01 3.5319829873774168e+01 -1.2474215377084462e+02 0 0 0
1806 52 2 0.0000000000000000e+00 -7.8128376005299160e+01 4.5086729614774605e+01 -1.2532405796309425e+02 0 0 0
3204 92 2 0.0000000000000000e+00 -5.3292077734324650e+01 4.4676622065048356e+01 -1.2611458305735351e+02 0 0 0
1369 40 1 0.0000000000000000e+00 -6.7652279296612051e+01 -8.6991952460112131e+01 -1.0876023408437382e+02 0 0 0
1367 40 2 0.0000000000000000e+00 -5.9326329025634678e+01 -8.0665804407774019e+01 -1.1904694503107112e+02 0 0 0
1368 40 2 0.0000000000000000e+00 -6.1142827935952020e+01 -8.9120914668542355e+01 -1.1567654892505372e+02 0 0 0
1372 40 2 0.0000000000000000e+00 -8.8230529526830423e+01 -7.5793160160276287e+01 -1.1509513447728440e+02 0 0 0
6504 186 4 0.0000000000000000e+00 -7.9361794820968029e+01 -6.4757403461932626e+01 -1.1307868244495194e+02 0 0 0
6505 186 4 0.0000000000000000e+00 -7.0122862003936532e+01 -6.6132406696120398e+01 -1.1621221604634270e+02 0 0 0
6506 186 4 0.0000000000000000e+00 -6.0499168495389227e+01 -6.8047557680480608e+01 -1.1849108782852556e+02 0 0 0
2221 64 2 0.0000000000000000e+00 -4.2383230818073443e+01 -7.0403048857315198e+01 -1.1291800614057229e+02 0 0 0
2222 64 2 0.0000000000000000e+00 -3.7866039034958234e+01 -6.5374813006996803e+01 -1.2027790058984894e+02 0 0 0
6502 186 4 0.0000000000000000e+00 -9.5993687743229856e+01 -5.8654954987313857e+01 -1.0822004715680519e+02 0 0 0
6503 186 4 0.0000000000000000e+00 -8.9660251288344114e+01 -6.2747545138624083e+01 -1.1466105215340755e+02 0 0 0
6333 181 4 0.0000000000000000e+00 -8.5836750887101672e+01 -5.5697645436539986e+01 -1.1976129222922509e+02 0 0 0
6332 181 3 0.0000000000000000e+00 -7.6283530808758456e+01 -5.5483308904613104e+01 -1.1599702526420830e+02 0 0 0
6331 181 4 0.0000000000000000e+00 -6.7267741918396197e+01 -5.2713579091465881e+01 -1.1295893141098563e+02 0 0 0
6329 181 4 0.0000000000000000e+00 -4.9466924724465272e+01 -5.4588926593653859e+01 -1.1111045365447355e+02 0 0 0
6330 181 4 0.0000000000000000e+00 -5.7812315989150292e+01 -4.9448180352368063e+01 -1.1281997059596119e+02 0 0 0
2213 64 2 0.0000000000000000e+00 -6.2488505827367590e+01 -3.7065822822439110e+01 -1.0817647513700372e+02 0 0 0
1540 44 2 0.0000000000000000e+00 -5.5836514806372122e+01 -3.9152909044181882e+01 -1.1772946939530372e+02 0 0 0
1379 40 2 0.0000000000000000e+00 -4.4499150548044469e+01 -4.8660075682037693e+01 -1.2097742167406163e+02 0 0 0
1380 40 2 0.0000000000000000e+00 -4.4448056885097508e+01 -4.3250460077416896e+01 -1.1320616153208788e+02 0 0 0
2097 60 1 0.0000000000000000e+00 -8.6679489021634879e+01 -3.4454093659028437e+01 -1.1708679957021867e+02 0 0 0
2098 60 2 0.0000000000000000e+00 -8.9278256981240531e+01 -2.8722616917321218e+01 -1.0958483356398690e+02 0 0 0
5546 159 4 0.0000000000000000e+00 -6.8913849695670208e+01 -3.6058580133269253e+01 -1.1804812731133438e+02 0 0 0
5547 159 4 0.0000000000000000e+00 -7.3608795450654497e+01 -3.2258269326101868e+01 -1.1003455704806568e+02 0 0 0
6515 187 4 0.0000000000000000e+00 -7.3279729676626317e+01 -2.5077175101646944e+01 -1.1949164233788245e+02 0 0 0
2212 64 2 0.0000000000000000e+00 -6.2036942639217052e+01 -2.8075769031319968e+01 -1.1149621444954718e+02 0 0 0
1539 44 2 0.0000000000000000e+00 -4.7718945405906688e+01 -3.3286368387923574e+01 -1.1462151517025686e+02 0 0 0
1538 44 2 0.0000000000000000e+00 -4.0907666337556606e+01 -2.8203698647213592e+01 -1.0962914556934214e+02 0 0 0
1537 44 1 0.0000000000000000e+00 -3.3206093118802478e+01 -2.4517625504165711e+01 -1.1557872823301058e+02 0 0 0
2100 60 2 0.0000000000000000e+00 -8.3450991657408125e+01 -1.3648161044272403e+01 -1.1504500168268640e+02 0 0 0
2099 60 2 0.0000000000000000e+00 -9.0812367417091352e+01 -2.0129353132521466e+01 -1.1360739780848169e+02 0 0 0
6516 187 4 0.0000000000000000e+00 -7.5215888766952077e+01 -2.0019368642519218e+01 -1.1107335442075254e+02 0 0 0
2211 64 2 0.0000000000000000e+00 -5.6750205550190898e+01 -2.1277479701184710e+01 -1.1654578952064016e+02 0 0 0
1535 44 2 0.0000000000000000e+00 -2.7862596926355419e+01 -9.9920824432785906e+00 -1.2073172404954917e+02 0 0 0
1536 44 2 0.0000000000000000e+00 -2.5218818625497217e+01 -1.9359511110181160e+01 -1.1743998863201925e+02 0 0 0
4750 136 3 0.0000000000000000e+00 -1.1051716842543085e+02 -8.6287857086821660e+00 -1.1968096563062933e+02 0 0 0
4751 136 4 0.0000000000000000e+00 -1.0701637687729712e+02 -2.9448187306336551e+00 -1.1198844654735269e+02 0 0 0
2208 64 2 0.0000000000000000e+00 -5.5365587133191156e+01 3.0664318856729520e+00 -1.1338773369768488e+02 0 0 0
6321 181 4 0.0000000000000000e+00 -4.2459088948601341e+01 -3.1784564946831961e-01 -1.1448190497749037e+02 0 0 0
6322 181 4 0.0000000000000000e+00 -4.9521545737317439e+01 -5.1446825121090125e+00 -1.0898362389875298e+02 0 0 0
1611 47 2 0.0000000000000000e+00 -2.9358347067636672e+01 -8.5065257733781063e+00 -1.1063245686277857e+02 0 0 0
1534 44 2 0.0000000000000000e+00 -2.5336830541125980e+01 -8.0417074593296978e-01 -1.1809109945979939e+02 0 0 0
1802 52 2 0.0000000000000000e+00 -9.3832941590873972e+01 1.6093067161225179e+01 -1.0992877387017180e+02 0 0 0
1801 52 2 0.0000000000000000e+00 -1.0164991461535811e+02 9.7938842107003783e+00 -1.0806566246903142e+02 0 0 0
5532 159 4 0.0000000000000000e+00 -7.2808645081099144e+01 4.9777357978201140e+00 -1.0919736376993765e+02 0 0 0
2207 64 2 0.0000000000000000e+00 -5.7812832511250171e+01 1.1025524909181598e+01 -1.0751973152952584e+02 0 0 0
2080 60 2 0.0000000000000000e+00 -1.0056327826751875e+02 2.3503934715236174e+01 -1.2000503914805836e+02 0 0 0
1803 52 1 0.0000000000000000e+00 -8.5588696239715333e+01 2.0480612704293549e+01 -1.1338666388716737e+02 0 0 0
5534 159 3 0.0000000000000000e+00 -7.4465016959883954e+01 2.1121175491147230e+01 -1.1353636001889109e+02 0 0 0
6186 177 4 0.0000000000000000e+00 -6.7699368625196954e+01 3.1061277439864025e+01 -1.1701481863002556e+02 0 0 0
3202 92 2 0.0000000000000000e+00 -5.4958737247789472e+01 2.7127669191572256e+01 -1.1756145737781790e+02 0 0 0
3201 92 2 0.0000000000000000e+00 -5.6936107847118613e+01 2.5302348776109014e+01 -1.0797221700105231e+02 0 0 0
6340 182 4 0.0000000000000000e+00 -1.3513804660339576e+02 3.9893467918821067e+01 -1.0787830033839030e+02 0 0 0
6341 182 4 0.0000000000000000e+00 -1.3192262876094210e+02 4.5141782870207166e+01 -1.1624735702765213e+02 0 0 0
577 17 2 0.0000000000000000e+00 -1.2291103994845707e+02 4.0002180023209384e+01 -1.1420017930920366e+02 0 0 0
5904 169 4 0.0000000000000000e+00 -1.1007009946327553e+02 3.7042714650206193e+01 -1.1205777913539387e+02 0 0 0
6187 177 4 0.0000000000000000e+00 -6.7166488062590020e+01 3.9891138531795868e+01 -1.1183092061381276e+02 0 0 0
3203 92 1 0.0000000000000000e+00 -5.6118299698534891e+01 3.7185161168855899e+01 -1.1988134678808154e+02 0 0 0
5132 147 4 0.0000000000000000e+00 -4.5663126091730021e+01 4.0789921107437138e+01 -1.0768532440050740e+02 0 0 0
4199 120 4 0.0000000000000000e+00 -6.7810946629027029e+01 -1.0971492367927098e+02 -9.7114206394295195e+01 0 0 0
4198 120 4 0.0000000000000000e+00 -6.6662866551325223e+01 -1.0287256443044882e+02 -1.0347593312853620e+02 0 0 0
4197 120 3 0.0000000000000000e+00 -7.1675696410597794e+01 -9.4696258651946479e+01 -1.0145234292335009e+02 0 0 0
1371 40 2 0.0000000000000000e+00 -8.6487095313360385e+01 -8.1338749504124010e+01 -1.0695453827043539e+02 0 0 0
1370 40 2 0.0000000000000000e+00 -7.7243434444846415e+01 -8.5301950376160363e+01 -1.0747382668963279e+02 0 0 0
2218 64 2 0.0000000000000000e+00 -6.9789306701987158e+01 -7.0304423310719599e+01 -1.0292792789611362e+02 0 0 0
2217 64 2 0.0000000000000000e+00 -7.6057154064759828e+01 -6.6777069104099056e+01 -9.5814482082941694e+01 0 0 0
2219 64 2 0.0000000000000000e+00 -6.0030561282855885e+01 -6.9515337129211730e+01 -1.0475686041772126e+02 0 0 0
2220 64 2 0.0000000000000000e+00 -5.0196445212934037e+01 -7.0623792820444692e+01 -1.0662736424806049e+02 0 0 0
6501 186 4 0.0000000000000000e+00 -8.9499522953034415e+01 -5.4399690205979908e+01 -1.0117171000200619e+02 0 0 0
2216 64 1 0.0000000000000000e+00 -7.6996330873068786e+01 -5.6635334532106341e+01 -9.8336347318286315e+01 0 0 0
6253 179 4 0.0000000000000000e+00 -1.0911939044383975e+02 -3.8271516602909450e+01 -1.0225878998115107e+02 0 0 0
6252 179 4 0.0000000000000000e+00 -1.0244387080814734e+02 -4.5364106116477451e+01 -9.8608845725291772e+01 0 0 0
2215 64 2 0.0000000000000000e+00 -7.7052968326276087e+01 -4.9333161459288405e+01 -1.0516067056476182e+02 0 0 0
2214 64 2 0.0000000000000000e+00 -7.1137917161723664e+01 -4.1753704046995630e+01 -1.0664637506044019e+02 0 0 0
1382 40 2 0.0000000000000000e+00 -5.7573664234324163e+01 -4.0610519667958798e+01 -9.8709369031974092e+01 0 0 0
6328 181 4 0.0000000000000000e+00 -4.4322355324673438e+01 -4.8899150641863180e+01 -1.0499735868210000e+02 0 0 0
1381 40 2 0.0000000000000000e+00 -4.9893038103907806e+01 -4.0515246901587609e+01 -1.0515191622437726e+02 0 0 0
6327 181 4 0.0000000000000000e+00 -3.7781989293460029e+01 -4.1895050900747044e+01 -1.0341582129041170e+02 0 0 0
5548 159 3 0.0000000000000000e+00 -6.8238432881509027e+01 -3.0307232223541376e+01 -1.0210101508392842e+02 0 0 0
5549 159 4 0.0000000000000000e+00 -5.8932232960295330e+01 -2.8233659411668093e+01 -9.8806016022651178e+01 0 0 0
5551 159 4 0.0000000000000000e+00 -4.5527967337639986e+01 -2.7563947384719423e+01 -9.5152749406217794e+01 0 0 0
5550 159 4 0.0000000000000000e+00 -5.0318218216215186e+01 -3.0567026588068522e+01 -1.0332557390238082e+02 0 0 0
6326 181 4 0.0000000000000000e+00 -3.2405172309598079e+01 -3.4343823486189642e+01 -1.0647126477021138e+02 0 0 0