LAMMPS data file via write_data, version 5 Jun 2019, timestep = 380000000

7000 atoms
4 atom types
7286 bonds
3 bond types
6600 angles
2 angle types

-5.0000000000000000e+02 5.0000000000000000e+02 xlo xhi
-5.0000000000000000e+02 5.0000000000000000e+02 ylo yhi
-5.0000000000000000e+02 5.0000000000000000e+02 zlo zhi

Masses

1 1000
2 1000
3 1000
4 1000

Pair Coeffs # lj/cut

1 0.178 10
2 0.178 10
3 0.178 10
4 0.178 10

Angle Coeffs # cosine

1 2
2 2

Atoms # full

4445 127 4 0.0000000000000000e+00 -2.4397700952630757e+01 -5.0005347235698260e+01 -1.8011747815927089e+02 0 0 0
2232 64 2 0.0000000000000000e+00 -2.9280783945040088e+01 -3.4920122034429269e+01 -1.7509939811567773e+02 0 0 0
2233 64 2 0.0000000000000000e+00 -2.9389488919339342e+01 -2.8553210142094795e+01 -1.8296680569194439e+02 0 0 0
2234 64 2 0.0000000000000000e+00 -3.1794458673319493e+01 -1.8674997623842209e+01 -1.8402699217230546e+02 0 0 0
2235 64 2 0.0000000000000000e+00 -2.6385370814166759e+01 -1.3521543384499898e+01 -1.7776683152383930e+02 0 0 0
3011 87 2 0.0000000000000000e+00 -7.6270390482777714e+01 1.0324615974784869e+01 -1.7867674715246184e+02 0 0 0
4444 127 4 0.0000000000000000e+00 -2.9816732721624486e+01 -5.3514918813130173e+01 -1.7254730572433365e+02 0 0 0
4443 127 4 0.0000000000000000e+00 -3.6619810024364220e+01 -4.7484076016994237e+01 -1.6827967540284945e+02 0 0 0
4442 127 3 0.0000000000000000e+00 -3.8110702714307827e+01 -3.7351636086451386e+01 -1.6575305924682459e+02 0 0 0
4441 127 4 0.0000000000000000e+00 -3.7011731437464761e+01 -2.8137495559120907e+01 -1.6285460556065496e+02 0 0 0
2231 64 2 0.0000000000000000e+00 -2.6265444279454172e+01 -3.5846943381257795e+01 -1.6535525487923161e+02 0 0 0
4439 127 4 0.0000000000000000e+00 -4.0184478154052186e+01 -1.2210193680168448e+01 -1.6648585081341406e+02 0 0 0
4440 127 4 0.0000000000000000e+00 -3.4685513413643790e+01 -1.9586624120228159e+01 -1.6810701935100397e+02 0 0 0
4437 127 4 0.0000000000000000e+00 -5.4985320958341426e+01 -6.9865699475587961e-01 -1.6334632818556585e+02 0 0 0
4438 127 4 0.0000000000000000e+00 -4.8898157977279865e+01 -7.6828432251837828e+00 -1.6492584209795740e+02 0 0 0
2237 64 1 0.0000000000000000e+00 -2.9051545423957140e+01 -5.9075257629597084e+00 -1.6451215900922674e+02 0 0 0
2236 64 2 0.0000000000000000e+00 -2.2154448870868226e+01 -6.9835216421881547e+00 -1.7109094976194135e+02 0 0 0
3012 87 2 0.0000000000000000e+00 -6.8187946935517516e+01 7.1998381165930248e+00 -1.7363036618127060e+02 0 0 0
3013 87 2 0.0000000000000000e+00 -5.9004403172033200e+01 1.0921948672564488e+01 -1.7013338309508302e+02 0 0 0
4436 127 4 0.0000000000000000e+00 -6.0738634029084814e+01 7.1820805150328217e+00 -1.6110053593175115e+02 0 0 0
3014 87 1 0.0000000000000000e+00 -5.3459765525901879e+01 1.4782505263011382e+01 -1.6259947305194677e+02 0 0 0
2227 64 2 0.0000000000000000e+00 -3.1045793177221537e+01 -6.7910901870874099e+01 -1.4835383309304558e+02 0 0 0
2228 64 2 0.0000000000000000e+00 -3.0799174827596506e+01 -6.0856825741939907e+01 -1.5517882307859514e+02 0 0 0
2230 64 1 0.0000000000000000e+00 -3.0864052482143087e+01 -4.1730591205147803e+01 -1.5839222567710746e+02 0 0 0
2229 64 2 0.0000000000000000e+00 -3.0634750414987739e+01 -5.1333322983107664e+01 -1.5746055904554828e+02 0 0 0
4726 136 4 0.0000000000000000e+00 -2.3249967212455854e+01 -3.8973354464822627e+01 -1.4927400571506172e+02 0 0 0
2100 60 2 0.0000000000000000e+00 -5.4914836478838687e+01 -1.9955492228332059e+01 -1.5756636141337984e+02 0 0 0
2099 60 2 0.0000000000000000e+00 -6.1741018804546634e+01 -1.7252071517357681e+01 -1.5067723468251609e+02 0 0 0
2240 64 2 0.0000000000000000e+00 -4.4218829451866839e+01 -2.3281525442601701e+01 -1.4827002146415819e+02 0 0 0
2238 64 2 0.0000000000000000e+00 -3.1719206408703752e+01 -1.1662894287740491e+01 -1.5727821070318123e+02 0 0 0
2239 64 2 0.0000000000000000e+00 -3.5627211555222637e+01 -1.8529966305361004e+01 -1.5085333920029598e+02 0 0 0
6301 181 4 0.0000000000000000e+00 -7.2065881803207404e+01 1.7268591678703658e+00 -1.4893006939738981e+02 0 0 0
4745 136 4 0.0000000000000000e+00 -5.2855382270230891e+01 -9.1466357627862109e+00 -1.5167105778758096e+02 0 0 0
4744 136 4 0.0000000000000000e+00 -4.3482290115621453e+01 -7.4546251870183076e+00 -1.5477331410331610e+02 0 0 0
4742 136 4 0.0000000000000000e+00 -2.4802434077186906e+01 1.6413216102134656e+00 -1.5387841093418348e+02 0 0 0
4743 136 3 0.0000000000000000e+00 -3.3861007755660616e+01 -2.7930416605504167e+00 -1.5483192013774786e+02 0 0 0
4741 136 4 0.0000000000000000e+00 -1.5811145583426025e+01 6.0672696056799758e-01 -1.5766722137735297e+02 0 0 0
5913 169 4 0.0000000000000000e+00 -1.1345224931950412e+02 9.9512722364712154e+00 -1.4728935981591070e+02 0 0 0
6302 181 4 0.0000000000000000e+00 -7.9227345005315982e+01 8.7528409768020712e+00 -1.4842437666797289e+02 0 0 0
4435 127 3 0.0000000000000000e+00 -6.3372422169428880e+01 1.5917545001822830e+01 -1.5730716775500110e+02 0 0 0
3016 87 2 0.0000000000000000e+00 -4.1793431591682214e+01 1.5428285155845989e+01 -1.4827807942006078e+02 0 0 0
4550 130 4 0.0000000000000000e+00 -1.0757717962116441e+01 1.3674954588320791e+01 -1.5460685252916093e+02 0 0 0
2226 64 2 0.0000000000000000e+00 -2.7477015165444094e+01 -6.8166151272253430e+01 -1.3911736706082010e+02 0 0 0
5429 156 3 0.0000000000000000e+00 -1.2795656526319299e+01 -6.6679545693430015e+01 -1.3692460785427792e+02 0 0 0
5426 156 4 0.0000000000000000e+00 -3.4385791787495819e+01 -5.4453627833042191e+01 -1.3708889615189418e+02 0 0 0
5427 156 4 0.0000000000000000e+00 -2.4982506179165544e+01 -5.2029343085304674e+01 -1.3881466724019873e+02 0 0 0
5428 156 4 0.0000000000000000e+00 -2.0290799271268376e+01 -6.0653365349222469e+01 -1.4021961366763966e+02 0 0 0
4727 136 4 0.0000000000000000e+00 -2.8746649754230962e+01 -4.4199707833203959e+01 -1.4225083210729420e+02 0 0 0
1631 47 2 0.0000000000000000e+00 -3.5320547998566752e+01 -3.9203763859294732e+01 -1.3706304585413417e+02 0 0 0
4728 136 4 0.0000000000000000e+00 -1.9916680700003500e+01 -4.3352935082266576e+01 -1.3752998285349665e+02 0 0 0
4729 136 3 0.0000000000000000e+00 -1.0628837997367064e+01 -3.9814206118638815e+01 -1.3681450606691789e+02 0 0 0
2098 60 2 0.0000000000000000e+00 -5.9753685678996234e+01 -1.5265982867324730e+01 -1.4141941933796491e+02 0 0 0
2097 60 1 0.0000000000000000e+00 -5.6657899637642423e+01 -2.1618595179769720e+01 -1.3470166368470322e+02 0 0 0
2068 60 2 0.0000000000000000e+00 -1.1277276026671787e+02 -9.0051390655253485e+00 -1.4176677087892199e+02 0 0 0
2069 60 1 0.0000000000000000e+00 -1.1716095998246587e+02 -8.1227904873127188e-01 -1.3898166957311275e+02 0 0 0
561 17 2 0.0000000000000000e+00 -9.9503691639982279e+01 -5.4410557487394229e+00 -1.4053604642216337e+02 0 0 0
562 17 2 0.0000000000000000e+00 -9.1837468672779281e+01 -3.1869901104372960e+00 -1.3414981952961858e+02 0 0 0
6511 187 4 0.0000000000000000e+00 -7.9592608772689587e+01 -2.4583231085782637e+00 -1.3568744438656395e+02 0 0 0
6512 187 4 0.0000000000000000e+00 -7.1909998381527672e+01 -7.7643225138737106e+00 -1.3804982064537819e+02 0 0 0
4746 136 4 0.0000000000000000e+00 -5.2609857339411903e+01 -3.6076078254120292e+00 -1.4259849750268219e+02 0 0 0
5539 159 4 0.0000000000000000e+00 -4.2583123587253276e+01 -3.7695332500082928e+00 -1.3764247054920364e+02 0 0 0
3020 87 2 0.0000000000000000e+00 -1.2828874494656377e+01 -4.9126849232838872e+00 -1.4258960488161009e+02 0 0 0
3019 87 2 0.0000000000000000e+00 -1.9252992678303023e+01 2.2090259380849555e+00 -1.4104632661190186e+02 0 0 0
2070 60 2 0.0000000000000000e+00 -1.1719476238283879e+02 7.8058883947904460e+00 -1.3522703947015296e+02 0 0 0
5912 169 3 0.0000000000000000e+00 -1.0881087939865589e+02 6.8898265416164346e+00 -1.3879725065827341e+02 0 0 0
6303 181 4 0.0000000000000000e+00 -8.8643949464351209e+01 1.1633166487036675e+01 -1.4707740594802155e+02 0 0 0
563 17 2 0.0000000000000000e+00 -8.8206950911939529e+01 5.9821569340219094e+00 -1.3386293908651189e+02 0 0 0
564 17 1 0.0000000000000000e+00 -8.3324649416256577e+01 1.3913134805420031e+01 -1.3736125120233353e+02 0 0 0
5538 159 4 0.0000000000000000e+00 -3.8289237229016109e+01 4.8274918151059945e+00 -1.4098709327563293e+02 0 0 0
3017 87 2 0.0000000000000000e+00 -3.3578955030526032e+01 1.5962293111712524e+01 -1.4314294151589095e+02 0 0 0
3018 87 2 0.0000000000000000e+00 -2.6123921472775212e+01 9.6301208981262612e+00 -1.4029276275963471e+02 0 0 0
4200 120 4 0.0000000000000000e+00 -4.7490664837467008e+01 -1.0354002199564495e+02 -1.2159729942096425e+02 0 0 0
1366 40 2 0.0000000000000000e+00 -3.4194897168719677e+01 -9.3407719212989861e+01 -1.2479000171712923e+02 0 0 0
1367 40 2 0.0000000000000000e+00 -3.5191826833465882e+01 -8.3784606243525559e+01 -1.2305015022205275e+02 0 0 0
2225 64 2 0.0000000000000000e+00 -2.5304605636133179e+01 -7.4183299310098363e+01 -1.3135704052882198e+02 0 0 0
2224 64 2 0.0000000000000000e+00 -2.8462081749057305e+01 -7.5148289630088527e+01 -1.2161502758659478e+02 0 0 0
1373 40 2 0.0000000000000000e+00 -1.4250947242132701e+01 -7.1308848213944387e+01 -1.2344913924918549e+02 0 0 0
2092 60 2 0.0000000000000000e+00 -3.8969265164256456e+01 -5.7197007820790333e+01 -1.2795979888567052e+02 0 0 0
2091 60 2 0.0000000000000000e+00 -2.9793672447063599e+01 -6.1185806070145972e+01 -1.2951622836833172e+02 0 0 0
1634 47 2 0.0000000000000000e+00 -1.3828257934887180e+01 -5.2245830075587079e+01 -1.3340994349382757e+02 0 0 0
2090 60 1 0.0000000000000000e+00 -1.9679005069766447e+01 -6.2703750836523831e+01 -1.2915873059364716e+02 0 0 0
2089 60 2 0.0000000000000000e+00 -1.1926633739281664e+01 -5.7577877731225058e+01 -1.2578401591042417e+02 0 0 0
2094 60 2 0.0000000000000000e+00 -5.3884894510857961e+01 -4.4652617500892028e+01 -1.3049377686085663e+02 0 0 0
6499 186 4 0.0000000000000000e+00 -5.5754432144806096e+01 -4.3876306086143565e+01 -1.2063758370518821e+02 0 0 0
2093 60 2 0.0000000000000000e+00 -4.6123599024490659e+01 -5.0256974528351940e+01 -1.2934112126834358e+02 0 0 0
1630 47 2 0.0000000000000000e+00 -4.0525478608888086e+01 -3.8800690120688785e+01 -1.2822038200595938e+02 0 0 0
1632 47 2 0.0000000000000000e+00 -2.8645367414500644e+01 -4.5021505749880937e+01 -1.3170722368700476e+02 0 0 0
2087 60 2 0.0000000000000000e+00 -1.8770540675959332e+01 -3.9852550081369920e+01 -1.2219592980783113e+02 0 0 0
1633 47 2 0.0000000000000000e+00 -2.1814261510916026e+01 -5.0479532833319844e+01 -1.2802813358125914e+02 0 0 0
2088 60 2 0.0000000000000000e+00 -1.4962832222173326e+01 -4.8463533385953099e+01 -1.2251863739802188e+02 0 0 0
2096 60 2 0.0000000000000000e+00 -6.3692984283005288e+01 -2.8076682896848325e+01 -1.3155300072591052e+02 0 0 0
2095 60 2 0.0000000000000000e+00 -5.8788448026623072e+01 -3.6250602748142676e+01 -1.2912181284296665e+02 0 0 0
1629 47 2 0.0000000000000000e+00 -4.3724849277146248e+01 -2.9550132709333031e+01 -1.2581396050096491e+02 0 0 0
1627 47 2 0.0000000000000000e+00 -2.8708527979831711e+01 -2.4601231371533586e+01 -1.3081114844615996e+02 0 0 0
6329 181 4 0.0000000000000000e+00 -9.9961658504535720e+00 -3.0550797958090914e+01 -1.2551204322485968e+02 0 0 0
2067 60 2 0.0000000000000000e+00 -1.1408280673268638e+02 -1.4090856806221549e+01 -1.3293974689345180e+02 0 0 0
2066 60 2 0.0000000000000000e+00 -1.1689557625695284e+02 -2.2104931638194433e+01 -1.2666982257155377e+02 0 0 0
6514 187 3 0.0000000000000000e+00 -5.7473812712115510e+01 -1.4315546185937944e+01 -1.2660496848882039e+02 0 0 0
1628 47 1 0.0000000000000000e+00 -3.7653332946456423e+01 -2.2128418762548105e+01 -1.2910172711821033e+02 0 0 0
5541 159 3 0.0000000000000000e+00 -4.7765529680612545e+01 -1.7336911916934753e+01 -1.2561875231023208e+02 0 0 0
1626 47 2 0.0000000000000000e+00 -1.9428061846541297e+01 -2.0917752410566337e+01 -1.3267154773990686e+02 0 0 0
4747 136 4 0.0000000000000000e+00 -5.2796920387447337e+01 9.9308056631150388e-01 -1.3303939833444088e+02 0 0 0
6513 187 4 0.0000000000000000e+00 -6.3416553511580908e+01 -1.0299428746393913e+01 -1.3315774528706493e+02 0 0 0
5540 159 4 0.0000000000000000e+00 -4.8433083279504849e+01 -8.3289511660489843e+00 -1.3124799985564252e+02 0 0 0
1540 44 2 0.0000000000000000e+00 -1.3796900732225316e+01 -6.1725618208697741e-01 -1.2216075879414170e+02 0 0 0
2071 60 2 0.0000000000000000e+00 -1.1386525845834397e+02 1.2337604725985237e+01 -1.2742147768930292e+02 0 0 0
2072 60 2 0.0000000000000000e+00 -1.0463018869245585e+02 8.4898816495586349e+00 -1.2812187017950797e+02 0 0 0
2073 60 2 0.0000000000000000e+00 -9.8063081085132282e+01 8.4117372729817550e+00 -1.2140151655505267e+02 0 0 0
4748 136 4 0.0000000000000000e+00 -4.9462653122557306e+01 2.9826745409274884e+00 -1.2424655073742409e+02 0 0 0
5537 159 4 0.0000000000000000e+00 -3.7760324239118354e+01 8.8920101102795730e+00 -1.3177514674158860e+02 0 0 0
5536 159 4 0.0000000000000000e+00 -4.1286288181454246e+01 1.5238289943151360e+01 -1.2564834635408445e+02 0 0 0
4199 120 4 0.0000000000000000e+00 -4.2284947412891839e+01 -9.6489337766803942e+01 -1.1602011695369126e+02 0 0 0
4198 120 4 0.0000000000000000e+00 -3.8106557968375164e+01 -9.0679270131405573e+01 -1.0926711473707712e+02 0 0 0
1368 40 2 0.0000000000000000e+00 -3.3746634571761625e+01 -8.2148824978032621e+01 -1.1272163414685262e+02 0 0 0
6508 186 4 0.0000000000000000e+00 -1.8967325252982526e+01 -8.2336310728823364e+01 -1.0891038897108849e+02 0 0 0
2223 64 1 0.0000000000000000e+00 -2.6964818838099845e+01 -7.3440913478417343e+01 -1.1195520204230299e+02 0 0 0
6507 186 3 0.0000000000000000e+00 -1.6016800111114424e+01 -7.2610531678053562e+01 -1.0881158754519981e+02 0 0 0
1372 40 2 0.0000000000000000e+00 -2.0472224774625605e+01 -6.5852962843997261e+01 -1.1768930270249977e+02 0 0 0
2526 73 2 0.0000000000000000e+00 -9.7495721870509499e+01 -5.1871072796154408e+01 -1.2004384738233485e+02 0 0 0
2527 73 2 0.0000000000000000e+00 -1.0103905318968464e+02 -5.5881748244121418e+01 -1.1153336687194798e+02 0 0 0
1371 40 2 0.0000000000000000e+00 -2.6379688075348870e+01 -6.3504016961634001e+01 -1.0979576934661127e+02 0 0 0
6505 186 4 0.0000000000000000e+00 -1.5071098402093698e+01 -5.2386810255881500e+01 -1.1202214427963972e+02 0 0 0
6506 186 4 0.0000000000000000e+00 -1.4652015505801035e+01 -6.2427329214653362e+01 -1.0979214316953053e+02 0 0 0
2525 73 2 0.0000000000000000e+00 -9.7218548911213645e+01 -4.2769484041927065e+01 -1.1617340665919022e+02 0 0 0
6496 186 4 0.0000000000000000e+00 -8.2182637822000459e+01 -4.7429881251845252e+01 -1.0999008373366019e+02 0 0 0
6498 186 4 0.0000000000000000e+00 -6.4204277463372136e+01 -4.9245679738314500e+01 -1.1819816542584925e+02 0 0 0
6497 186 4 0.0000000000000000e+00 -7.2544071423693708e+01 -4.7682148073559624e+01 -1.1336309090197814e+02 0 0 0
6500 186 3 0.0000000000000000e+00 -4.6119533138187961e+01 -4.1981943941543818e+01 -1.1731307832318318e+02 0 0 0
2216 64 1 0.0000000000000000e+00 -4.0621904898442182e+01 -4.6166654253934468e+01 -1.0865337717099064e+02 0 0 0
2217 64 2 0.0000000000000000e+00 -3.4039486041138289e+01 -5.0556846802826620e+01 -1.1463444025872910e+02 0 0 0
2218 64 2 0.0000000000000000e+00 -2.6906340873792498e+01 -4.9364343812874914e+01 -1.0813809880350391e+02 0 0 0
6504 186 4 0.0000000000000000e+00 -1.3256833484547906e+01 -4.2816037797620623e+01 -1.0935756160959671e+02 0 0 0
2524 73 1 0.0000000000000000e+00 -1.0434753498404064e+02 -3.7410380590115970e+01 -1.1225518579948691e+02 0 0 0
6501 186 4 0.0000000000000000e+00 -3.9267052945038422e+01 -3.5070356661040961e+01 -1.1417503172497985e+02 0 0 0
2086 60 2 0.0000000000000000e+00 -2.4121754260239207e+01 -3.2583280420487775e+01 -1.1874602951616708e+02 0 0 0
6502 186 4 0.0000000000000000e+00 -2.9775958440104237e+01 -3.7124569248939054e+01 -1.1176090361922913e+02 0 0 0
2085 60 2 0.0000000000000000e+00 -3.1118126103407430e+01 -2.7009269722040191e+01 -1.1464249256385784e+02 0 0 0
6503 186 4 0.0000000000000000e+00 -2.0543130308142739e+01 -3.5863713287274109e+01 -1.0808698990131765e+02 0 0 0
1381 40 2 0.0000000000000000e+00 -1.0665557440269941e+01 -3.2270996438796786e+01 -1.0666737587140754e+02 0 0 0
6300 180 4 0.0000000000000000e+00 -1.3666666423615081e+02 -1.2252790877298477e+01 -1.1298501133797612e+02 0 0 0
6515 187 4 0.0000000000000000e+00 -5.8389713143876513e+01 -1.7540182814677387e+01 -1.1768869289097790e+02 0 0 0
6516 187 4 0.0000000000000000e+00 -5.7815881219135001e+01 -1.9888243144065061e+01 -1.0802387115459143e+02 0 0 0
5543 159 4 0.0000000000000000e+00 -4.6729073814650214e+01 -2.2535186500807725e+01 -1.0772507703142021e+02 0 0 0
5542 159 4 0.0000000000000000e+00 -4.5042236929660341e+01 -2.3124229203955544e+01 -1.1775092658914096e+02 0 0 0
2084 60 2 0.0000000000000000e+00 -3.5904730240104904e+01 -1.8864280014426008e+01 -1.1689033894833884e+02 0 0 0
2212 64 2 0.0000000000000000e+00 -2.8314448590024181e+01 -1.5495338253917527e+01 -1.1020966744376381e+02 0 0 0
2211 64 2 0.0000000000000000e+00 -1.8978184027126673e+01 -1.3845285006289215e+01 -1.0727161045555974e+02 0 0 0
6327 181 4 0.0000000000000000e+00 -1.0216371606564714e+01 -1.3499927609370694e+01 -1.1797611747716948e+02 0 0 0
4750 136 3 0.0000000000000000e+00 -4.7869874881077948e+01 -1.0173376878254265e+01 -1.0990437054619917e+02 0 0 0
4749 136 4 0.0000000000000000e+00 -4.9119903103168262e+01 -4.3988049919593006e+00 -1.1783971099751044e+02 0 0 0
2082 60 2 0.0000000000000000e+00 -3.9815711740834651e+01 -2.7625561093633605e-01 -1.1906104050305409e+02 0 0 0
2083 60 1 0.0000000000000000e+00 -3.8370042585374826e+01 -9.5072293408763517e+00 -1.1617088484553916e+02 0 0 0
2210 64 2 0.0000000000000000e+00 -2.6243584525013084e+01 -6.9888137346117629e+00 -1.0704797808178736e+02 0 0 0
2209 64 1 0.0000000000000000e+00 -3.4965445560371784e+01 -3.3607077434425507e+00 -1.0980543174286284e+02 0 0 0
1539 44 2 0.0000000000000000e+00 -1.5389025622076533e+01 -3.8257691034893830e+00 -1.1260224224557882e+02 0 0 0
6293 180 4 0.0000000000000000e+00 -1.4512971810289216e+02 1.5476673320990239e+01 -1.1378711700187556e+02 0 0 0
6308 181 4 0.0000000000000000e+00 -1.1320056549470625e+02 1.5216680493277401e+01 -1.0746840131942140e+02 0 0 0
2074 60 2 0.0000000000000000e+00 -9.0529115792538491e+01 1.0624008510342060e+01 -1.1498354076541339e+02 0 0 0
2081 60 2 0.0000000000000000e+00 -4.3997926252597885e+01 8.8673379330199076e+00 -1.1829805599909399e+02 0 0 0
2080 60 2 0.0000000000000000e+00 -4.7143523774055019e+01 1.2534633192692270e+01 -1.0987756185035353e+02 0 0 0
6319 181 4 0.0000000000000000e+00 -2.8152898966370586e+01 7.5951674963399860e+00 -1.0717977943131162e+02 0 0 0
6321 181 4 0.0000000000000000e+00 -1.4091684983533437e+01 1.0831811743276107e+01 -1.1736570287176831e+02 0 0 0
6320 181 4 0.0000000000000000e+00 -1.9043156280851385e+01 6.3218540171237034e+00 -1.1024669227331350e+02 0 0 0
6510 186 4 0.0000000000000000e+00 -2.6734044658109266e+01 -9.7961632601863656e+01 -1.0259477283994251e+02 0 0 0
4197 120 3 0.0000000000000000e+00 -3.8268827822490103e+01 -8.4200489664611396e+01 -1.0257939698295688e+02 0 0 0
6509 186 4 0.0000000000000000e+00 -2.5336698090484397e+01 -8.8244042699365949e+01 -1.0509335596555734e+02 0 0 0
4196 120 4 0.0000000000000000e+00 -3.2740617788584522e+01 -7.7437762875956068e+01 -9.6949877761074319e+01 0 0 0
1369 40 1 0.0000000000000000e+00 -3.4582078796842310e+01 -7.4308373712514808e+01 -1.0605756720422595e+02 0 0 0
2222 64 2 0.0000000000000000e+00 -2.3535666814690227e+01 -7.2952333886632402e+01 -1.0250046147059895e+02 0 0 0
2221 64 2 0.0000000000000000e+00 -2.1296351808186497e+01 -6.8234362289423643e+01 -9.3948229547827680e+01 0 0 0
2529 73 2 0.0000000000000000e+00 -1.0506674971691046e+02 -5.4307905756698226e+01 -9.4041874146210858e+01 0 0 0
2528 73 2 0.0000000000000000e+00 -1.0651737064043910e+02 -5.7763133952302766e+01 -1.0312379544247881e+02 0 0 0
1370 40 2 0.0000000000000000e+00 -3.3146857943874387e+01 -6.4690817079880745e+01 -1.0328072053945405e+02 0 0 0
2220 64 2 0.0000000000000000e+00 -2.4639873843707235e+01 -5.8839852830401199e+01 -9.3950358284987246e+01 0 0 0
2219 64 2 0.0000000000000000e+00 -2.1152038928831111e+01 -5.5468497147868092e+01 -1.0215766864214842e+02 0 0 0
3745 107 4 0.0000000000000000e+00 -1.2716332408060254e+02 -4.4019073477044309e+01 -9.3465796682133970e+01 0 0 0
6495 186 4 0.0000000000000000e+00 -8.6483158777842277e+01 -4.2060540649680441e+01 -1.0332742845064246e+02 0 0 0
2215 64 2 0.0000000000000000e+00 -3.8300788896193716e+01 -3.9453003539880392e+01 -1.0098127012549622e+02 0 0 0
2521 73 2 0.0000000000000000e+00 -1.2999298398273612e+02 -3.3894282475795912e+01 -1.0018962896495213e+02 0 0 0
2522 73 2 0.0000000000000000e+00 -1.2070962118840882e+02 -3.1539610215394074e+01 -1.0286610821435347e+02 0 0 0
2523 73 2 0.0000000000000000e+00 -1.1171231150206968e+02 -3.3344237903774697e+01 -1.0637435938685898e+02 0 0 0
6492 186 4 0.0000000000000000e+00 -1.0797027727995486e+02 -3.3798693492915355e+01 -9.6889923634179013e+01 0 0 0
6491 186 4 0.0000000000000000e+00 -1.1692189858237639e+02 -3.7404320719992214e+01 -9.6196020018293851e+01 0 0 0
6493 186 3 0.0000000000000000e+00 -1.0086002287202221e+02 -3.0984900178120466e+01 -1.0333390411147658e+02 0 0 0
6494 186 4 0.0000000000000000e+00 -9.1361283657808244e+01 -3.3710088445981022e+01 -1.0477104540710778e+02 0 0 0
2214 64 2 0.0000000000000000e+00 -3.3686687230842665e+01 -3.1179531086774116e+01 -1.0172186033082312e+02 0 0 0
1383 40 1 0.0000000000000000e+00 -2.3462905007034209e+01 -3.4476453536128282e+01 -9.4474545080190808e+01 0 0 0
1382 40 2 0.0000000000000000e+00 -1.3913958479184661e+01 -3.3881899532161910e+01 -9.7373396476551179e+01 0 0 0
6297 180 3 0.0000000000000000e+00 -1.5034292710781401e+02 -1.3387675104219111e+01 -9.5781681610392127e+01 0 0 0
6299 180 4 0.0000000000000000e+00 -1.3787146332738789e+02 -1.9523970492737043e+01 -1.0541828825247973e+02 0 0 0
6298 180 4 0.0000000000000000e+00 -1.4560479852221124e+02 -2.1268548285885412e+01 -9.9293326519706710e+01 0 0 0
4753 136 4 0.0000000000000000e+00 -6.5919424055663811e+01 -1.6242770769306059e+01 -1.0241670872527781e+02 0 0 0
4754 136 4 0.0000000000000000e+00 -7.1309525069987728e+01 -2.0307031537302684e+01 -9.4518079991452225e+01 0 0 0
6517 187 4 0.0000000000000000e+00 -5.5841090258192281e+01 -2.0627148652109611e+01 -9.8633105419442501e+01 0 0 0
4752 136 4 0.0000000000000000e+00 -5.9606848457402400e+01 -1.0879771558929543e+01 -9.7486532590977433e+01 0 0 0
5544 159 4 0.0000000000000000e+00 -4.0549358362351335e+01 -2.0386056377454210e+01 -1.0075991906044038e+02 0 0 0
5545 159 4 0.0000000000000000e+00 -3.8225604697395184e+01 -1.4006698060205435e+01 -9.2980866710783744e+01 0 0 0
2213 64 2 0.0000000000000000e+00 -3.1154274865323991e+01 -2.1541757569482765e+01 -1.0276781895896964e+02 0 0 0
5547 159 4 0.0000000000000000e+00 -2.4665563225272226e+01 -2.0261372281535298e+01 -9.3449532062029988e+01 0 0 0
6296 180 4 0.0000000000000000e+00 -1.5522368606553570e+02 -5.2306608994594876e+00 -9.9838232659000468e+01 0 0 0
6295 180 4 0.0000000000000000e+00 -1.5521477581671039e+02 2.5984089111894160e+00 -1.0603574748677867e+02 0 0 0
5881 169 4 0.0000000000000000e+00 -8.7126739203151743e+01 -7.5073202866813876e-02 -1.0110631231720785e+02 0 0 0
4751 136 4 0.0000000000000000e+00 -5.1068782503770855e+01 -8.3027542080585732e+00 -1.0053888172924087e+02 0 0 0
2208 64 2 0.0000000000000000e+00 -4.3742858233779778e+01 -1.7114549454794943e+00 -1.0438074621235434e+02 0 0 0
2207 64 2 0.0000000000000000e+00 -4.3599112107327656e+01 -3.1754707777518765e-01 -9.4259046355600290e+01 0 0 0
1538 44 2 0.0000000000000000e+00 -9.9786240799650106e+00 1.9891992501909408e-01 -1.0494242846365094e+02 0 0 0
5255 151 4 0.0000000000000000e+00 -1.5444651538889595e+01 2.3293148541162769e+00 -9.4379208379681529e+01 0 0 0
6480 186 4 0.0000000000000000e+00 -1.6607717403742015e+02 1.3396118135917382e+01 -9.8992718728482131e+01 0 0 0
6294 180 4 0.0000000000000000e+00 -1.4873977878644990e+02 1.0714463985825608e+01 -1.0488516618988791e+02 0 0 0
6309 181 4 0.0000000000000000e+00 -1.1143158036115851e+02 1.3673756903791460e+01 -9.7885138760168402e+01 0 0 0
2075 60 2 0.0000000000000000e+00 -8.8387202002975556e+01 1.1914904589210705e+01 -1.0536261742892449e+02 0 0 0
2078 60 2 0.0000000000000000e+00 -6.5613601335866690e+01 1.1508754135656812e+01 -1.0287658210793899e+02 0 0 0
2077 60 2 0.0000000000000000e+00 -7.3430707981775399e+01 1.4842227723294165e+01 -9.7586426053001347e+01 0 0 0
6314 181 4 0.0000000000000000e+00 -7.2319353769270251e+01 3.0166630279455098e+00 -9.7080004547843217e+01 0 0 0
2079 60 2 0.0000000000000000e+00 -5.5643195928985278e+01 1.3495091280786930e+01 -1.0512440507275848e+02 0 0 0
6316 181 4 0.0000000000000000e+00 -5.3460789737691563e+01 7.8368382305386648e+00 -9.5402323749575729e+01 0 0 0
6315 181 4 0.0000000000000000e+00 -6.2084792780516878e+01 3.0911450472679731e+00 -9.8281334252994071e+01 0 0 0
6317 181 4 0.0000000000000000e+00 -4.4149687965298646e+01 1.0414119917726838e+01 -9.8505489333993836e+01 0 0 0
6318 181 3 0.0000000000000000e+00 -3.6807532329512114e+01 4.8815876874006223e+00 -1.0289311406046974e+02 0 0 0
2659 76 2 0.0000000000000000e+00 -3.2409779694899356e+01 6.1496430425945636e+00 -9.3409526001329013e+01 0 0 0
2658 76 2 0.0000000000000000e+00 -3.1969801008983417e+01 1.5958413983213784e+01 -9.5268177749372256e+01 0 0 0
2657 76 1 0.0000000000000000e+00 -2.2076181649968365e+01 1.5545686173209987e+01 -9.2994485850777991e+01 0 0 0
6243 179 4 0.0000000000000000e+00 -3.4063071957404318e+01 -1.0732475700606268e+02 -8.2837056578716854e+01 0 0 0
6242 179 4 0.0000000000000000e+00 -2.3790737611839113e+01 -1.0651487378375853e+02 -8.1535623483830818e+01 0 0 0
6248 179 3 0.0000000000000000e+00 -6.4906363142679439e+01 -8.1081736159471689e+01 -8.0031636061711311e+01 0 0 0
6247 179 4 0.0000000000000000e+00 -6.0147674934805650e+01 -8.9772632922089997e+01 -8.0019876408937137e+01 0 0 0
6249 179 4 0.0000000000000000e+00 -6.4518865344744569e+01 -7.1354795184190777e+01 -8.1997030741540513e+01 0 0 0
4195 120 4 0.0000000000000000e+00 -2.8099423626116831e+01 -7.4809327033885680e+01 -8.8611685230358873e+01 0 0 0
4194 120 4 0.0000000000000000e+00 -2.5445355694326679e+01 -6.5560260301247496e+01 -8.5291541606283943e+01 0 0 0
2530 73 2 0.0000000000000000e+00 -1.0754047644428248e+02 -5.2245662564317534e+01 -8.4573881032452391e+01 0 0 0
6250 179 4 0.0000000000000000e+00 -6.9603238213157809e+01 -6.2407003650978332e+01 -8.2847989550196900e+01 0 0 0
2542 73 2 0.0000000000000000e+00 -6.9229505420050629e+01 -5.3186859334915312e+01 -8.8159098706921824e+01 0 0 0
2541 73 2 0.0000000000000000e+00 -6.4036964254536613e+01 -5.2885092838444749e+01 -7.9931455147063019e+01 0 0 0
773 23 2 0.0000000000000000e+00 -1.2758567998007686e+01 -5.9919797562913985e+01 -8.4211837712223328e+01 0 0 0
772 23 2 0.0000000000000000e+00 -1.9340319648497019e+01 -5.3133622219556202e+01 -8.6948630516212916e+01 0 0 0
3744 107 4 0.0000000000000000e+00 -1.2144757908398576e+02 -4.3197934701079411e+01 -8.5490573074290879e+01 0 0 0
2545 73 1 0.0000000000000000e+00 -9.3018723644030601e+01 -3.8470191371129644e+01 -8.6496204081662455e+01 0 0 0
2544 73 2 0.0000000000000000e+00 -8.4828281119808537e+01 -4.3650165032406612e+01 -8.6849408771222002e+01 0 0 0
2543 73 2 0.0000000000000000e+00 -7.8894042776385362e+01 -5.1397531690531004e+01 -8.6478421356402890e+01 0 0 0
1386 40 2 0.0000000000000000e+00 -4.5782657282117590e+01 -4.0673820863059063e+01 -8.0771243270108513e+01 0 0 0
771 23 2 0.0000000000000000e+00 -2.6764811170659488e+01 -4.6832098713675485e+01 -8.5231808189035263e+01 0 0 0
5550 159 4 0.0000000000000000e+00 -9.5819142861229807e+00 -4.1314983476709905e+01 -8.1457045227554559e+01 0 0 0
6490 186 4 0.0000000000000000e+00 -1.1834546634312579e+02 -3.2447393012442014e+01 -8.7171914433070228e+01 0 0 0
6489 186 4 0.0000000000000000e+00 -1.1692584806517087e+02 -2.6221769647998268e+01 -7.9435494851513681e+01 0 0 0
2546 73 2 0.0000000000000000e+00 -9.4462091562163394e+01 -2.8700955451329680e+01 -8.7752172559803881e+01 0 0 0
4755 136 4 0.0000000000000000e+00 -7.7901107182556274e+01 -2.4928952836302397e+01 -8.9440809360621699e+01 0 0 0
3736 107 4 0.0000000000000000e+00 -7.4571843512108245e+01 -3.5780529690744217e+01 -7.9853872486482999e+01 0 0 0
1387 40 2 0.0000000000000000e+00 -5.4646898118844106e+01 -3.6700502083684817e+01 -8.4466493069911010e+01 0 0 0
1385 40 2 0.0000000000000000e+00 -3.8302921693100352e+01 -3.5459542476769236e+01 -8.3847336612642138e+01 0 0 0
1384 40 2 0.0000000000000000e+00 -2.9069831181120843e+01 -3.5093298405187355e+01 -8.6059482962583488e+01 0 0 0
5549 159 4 0.0000000000000000e+00 -1.2907104807407540e+01 -3.3780944253896266e+01 -8.6929557203058124e+01 0 0 0
5548 159 3 0.0000000000000000e+00 -1.6190043395435232e+01 -2.6079784700049068e+01 -9.2600460662100545e+01 0 0 0
5769 165 4 0.0000000000000000e+00 -1.7520974282684541e+01 -2.6136822115464000e+01 -8.2033437001951086e+01 0 0 0
2551 73 2 0.0000000000000000e+00 -1.3595863168779528e+02 -1.2054355890112491e+01 -9.0216452082026422e+01 0 0 0
2550 73 2 0.0000000000000000e+00 -1.2783746536584064e+02 -1.4636404310998827e+01 -8.5067302851011334e+01 0 0 0
2549 73 2 0.0000000000000000e+00 -1.1841462040891122e+02 -1.6878202444414129e+01 -8.2767154354483594e+01 0 0 0
2548 73 2 0.0000000000000000e+00 -1.0952915384454273e+02 -2.0761315627621361e+01 -8.4704476268521418e+01 0 0 0
2547 73 2 0.0000000000000000e+00 -1.0104320469209669e+02 -2.0818433170602209e+01 -8.9614168373303229e+01 0 0 0
4756 136 4 0.0000000000000000e+00 -8.2731866110714122e+01 -2.4381667657358371e+01 -8.0630394576972037e+01 0 0 0
3734 107 4 0.0000000000000000e+00 -7.0150523818762608e+01 -1.6764554987291646e+01 -8.1115589329972252e+01 0 0 0
6518 187 4 0.0000000000000000e+00 -5.7687030588150236e+01 -1.9473627692617136e+01 -8.8998347784389424e+01 0 0 0
6519 187 4 0.0000000000000000e+00 -5.3064026235964278e+01 -1.8413929530302788e+01 -8.0558486735316706e+01 0 0 0
5546 159 4 0.0000000000000000e+00 -3.1927523449484347e+01 -1.8291560616545613e+01 -8.6977508306739551e+01 0 0 0
5770 165 4 0.0000000000000000e+00 -2.7105252121299692e+01 -2.3752073670239671e+01 -7.9878421510671146e+01 0 0 0
2553 73 2 0.0000000000000000e+00 -1.5139627784075370e+02 -9.6208275829249423e+00 -7.9371467279122157e+01 0 0 0