LAMMPS data file via write_data, version 5 Jun 2019, timestep = 390000000

7000 atoms
4 atom types
7288 bonds
3 bond types
6600 angles
2 angle types

-5.0000000000000000e+02 5.0000000000000000e+02 xlo xhi
-5.0000000000000000e+02 5.0000000000000000e+02 ylo yhi
-5.0000000000000000e+02 5.0000000000000000e+02 zlo zhi

Masses

1 1000
2 1000
3 1000
4 1000

Pair Coeffs # lj/cut

1 0.178 10
2 0.178 10
3 0.178 10
4 0.178 10

Angle Coeffs # cosine

1 2
2 2

Atoms # full

6510 186 4 0.0000000000000000e+00 -5.7560930555775499e+01 -8.7390963850620324e+01 -1.8873301750946257e+02 0 0 0
6509 186 4 0.0000000000000000e+00 -5.3734229922154022e+01 -8.1561730414969190e+01 -1.8189255525062833e+02 0 0 0
6508 186 4 0.0000000000000000e+00 -5.8485985229861839e+01 -7.3952304010876929e+01 -1.7724663093374514e+02 0 0 0
2227 64 2 0.0000000000000000e+00 -5.2052463239479771e+01 -5.0287160570275532e+01 -1.7560011181533315e+02 0 0 0
2226 64 2 0.0000000000000000e+00 -4.1615083150422805e+01 -5.1473780209086840e+01 -1.7572676285062875e+02 0 0 0
2230 64 1 0.0000000000000000e+00 -6.9859873844324170e+01 -3.2640714396024208e+01 -1.7699441319253748e+02 0 0 0
2231 64 2 0.0000000000000000e+00 -7.7127150787975069e+01 -2.5442120927690365e+01 -1.7860961174009901e+02 0 0 0
4443 127 4 0.0000000000000000e+00 -5.8642467795297250e+01 -2.5457169207067611e+01 -1.7964659705062613e+02 0 0 0
2232 64 2 0.0000000000000000e+00 -8.4404941939488509e+01 -1.8945609998649783e+01 -1.7765241494872586e+02 0 0 0
4441 127 4 0.0000000000000000e+00 -7.4213212002577947e+01 -1.7026600283141743e+01 -1.8274111250897639e+02 0 0 0
4442 127 3 0.0000000000000000e+00 -6.7740612329085252e+01 -2.4307624436123948e+01 -1.8430402760753469e+02 0 0 0
4444 127 4 0.0000000000000000e+00 -5.3956069242121856e+01 -2.3106604982776460e+01 -1.7171749332838831e+02 0 0 0
2233 64 2 0.0000000000000000e+00 -8.8809659446894230e+01 -1.0447110987130037e+01 -1.7600109544083983e+02 0 0 0
2234 64 2 0.0000000000000000e+00 -9.5489862110763468e+01 -3.0669198745500656e+00 -1.7456279977661171e+02 0 0 0
4440 127 4 0.0000000000000000e+00 -7.1308472178172693e+01 -7.2167123158838322e+00 -1.8484964809106538e+02 0 0 0
4439 127 4 0.0000000000000000e+00 -6.9406576460271154e+01 2.8434653708190925e+00 -1.8462821486043347e+02 0 0 0
4438 127 4 0.0000000000000000e+00 -6.9501903266129275e+01 5.8789766885543164e+00 -1.7480991286499938e+02 0 0 0
1636 47 2 0.0000000000000000e+00 -3.5555931113260677e+01 4.7233797968998728e+00 -1.7411499936198703e+02 0 0 0
1637 47 2 0.0000000000000000e+00 -2.8577305836144070e+01 8.8425100092670181e+00 -1.7985825663375570e+02 0 0 0
6507 186 3 0.0000000000000000e+00 -5.7981571623494503e+01 -7.0293768768901401e+01 -1.6800818934910089e+02 0 0 0
6506 186 4 0.0000000000000000e+00 -5.4759281050170841e+01 -7.0886377637614245e+01 -1.5899510947475608e+02 0 0 0
2223 64 1 0.0000000000000000e+00 -5.7753664237787127e+01 -6.1835853372278912e+01 -1.6102328306428831e+02 0 0 0
2224 64 2 0.0000000000000000e+00 -5.0711555294030298e+01 -5.6080487893581889e+01 -1.6474830648936677e+02 0 0 0
5429 156 3 0.0000000000000000e+00 -7.6010634252995217e+01 -4.1903499143121238e+01 -1.6634731785888570e+02 0 0 0
5430 156 4 0.0000000000000000e+00 -7.0182196082091750e+01 -4.4929288067596381e+01 -1.5881339271263283e+02 0 0 0
2228 64 2 0.0000000000000000e+00 -5.8035497641499667e+01 -4.6077860379869655e+01 -1.6906830886577421e+02 0 0 0
2225 64 2 0.0000000000000000e+00 -4.2696000193522615e+01 -5.0252703862282978e+01 -1.6604265538444230e+02 0 0 0
3022 87 2 0.0000000000000000e+00 -4.9986193840141624e+01 -4.5001812786670563e+01 -1.5839953649008456e+02 0 0 0
6335 181 4 0.0000000000000000e+00 -1.0428986017085316e+02 -3.2118096565658917e+01 -1.6483568148562665e+02 0 0 0
5427 156 4 0.0000000000000000e+00 -8.4381047278461168e+01 -2.8239718525123990e+01 -1.5969084409846172e+02 0 0 0
5428 156 4 0.0000000000000000e+00 -7.7910987891971416e+01 -3.2110779297223957e+01 -1.6595622196962094e+02 0 0 0
2229 64 2 0.0000000000000000e+00 -6.4524790196718570e+01 -3.8270280222371291e+01 -1.7038930489422000e+02 0 0 0
3021 87 1 0.0000000000000000e+00 -5.3915194416460587e+01 -3.5256981738153044e+01 -1.5842783672415018e+02 0 0 0
5426 156 4 0.0000000000000000e+00 -9.0473983466217689e+01 -2.0606198149587787e+01 -1.6239737329330782e+02 0 0 0
1631 47 2 0.0000000000000000e+00 -7.5042669125911701e+01 -1.9693418430620600e+01 -1.6302986635942204e+02 0 0 0
1633 47 2 0.0000000000000000e+00 -5.6650605252358268e+01 -1.3532916726404839e+01 -1.6803400402712424e+02 0 0 0
1632 47 2 0.0000000000000000e+00 -6.5959380625057022e+01 -1.5379089650320411e+01 -1.6551732058343046e+02 0 0 0
4445 127 4 0.0000000000000000e+00 -4.8728003269706107e+01 -2.0039433425008919e+01 -1.6354703358665324e+02 0 0 0
2236 64 2 0.0000000000000000e+00 -1.0649272870250761e+02 -3.2255855293140545e+00 -1.5926477850084075e+02 0 0 0
2235 64 2 0.0000000000000000e+00 -1.0239713260641008e+02 -5.5906156528525275e-01 -1.6800653354724011e+02 0 0 0
4742 136 4 0.0000000000000000e+00 -9.6906716440531198e+01 -2.6885947101577434e+00 -1.5787584134877417e+02 0 0 0
1627 47 2 0.0000000000000000e+00 -8.7080107622158096e+01 -9.0375993432608794e+00 -1.6053541684403453e+02 0 0 0
1626 47 2 0.0000000000000000e+00 -7.9707492034330130e+01 -3.7614299855953672e+00 -1.6402685728649976e+02 0 0 0
1625 47 2 0.0000000000000000e+00 -7.0326510989340477e+01 -3.4379134314537945e+00 -1.6071345960220228e+02 0 0 0
1624 47 2 0.0000000000000000e+00 -6.1120799040493161e+01 -6.4122145687986158e+00 -1.6033572243847567e+02 0 0 0
1634 47 2 0.0000000000000000e+00 -4.8617649179369280e+01 -7.9139608006001065e+00 -1.6732765725245611e+02 0 0 0
4730 136 4 0.0000000000000000e+00 -4.5957396571075790e+01 -8.5687176218553351e-01 -1.5970110122898382e+02 0 0 0
1635 47 1 0.0000000000000000e+00 -4.1428293481193201e+01 -1.4050296193783225e+00 -1.6881604577806058e+02 0 0 0
4741 136 4 0.0000000000000000e+00 -8.8075793312371360e+01 2.4356440608978240e+00 -1.5769074032393448e+02 0 0 0
4437 127 4 0.0000000000000000e+00 -7.4336612824016697e+01 1.4012488925381033e+01 -1.6987867994206024e+02 0 0 0
4436 127 4 0.0000000000000000e+00 -7.9102949626831347e+01 1.1696597750385637e+01 -1.6121175682788731e+02 0 0 0
4727 136 4 0.0000000000000000e+00 -6.7100189484208883e+01 1.1027265510807242e+01 -1.6334242756110541e+02 0 0 0
4728 136 4 0.0000000000000000e+00 -5.9551469025290025e+01 8.7322938545519406e+00 -1.6983294863882037e+02 0 0 0
4729 136 3 0.0000000000000000e+00 -5.0585857994172585e+01 5.1149375130477965e+00 -1.6671143180270928e+02 0 0 0
6505 186 4 0.0000000000000000e+00 -5.6137069045216855e+01 -6.7182189919332018e+01 -1.4970902425036451e+02 0 0 0
2221 64 2 0.0000000000000000e+00 -6.8315491872668375e+01 -6.7169815773234546e+01 -1.4616017266004772e+02 0 0 0
2093 60 2 0.0000000000000000e+00 -1.0276476330068053e+02 -5.7617381372064784e+01 -1.4510373601707033e+02 0 0 0
2092 60 2 0.0000000000000000e+00 -9.3775609886967345e+01 -5.4943289914821875e+01 -1.4871858711207227e+02 0 0 0
2222 64 2 0.0000000000000000e+00 -6.6059572702589307e+01 -6.4476200305820413e+01 -1.5506910564969849e+02 0 0 0
5432 156 4 0.0000000000000000e+00 -5.7354809045585455e+01 -5.2193095544656416e+01 -1.4644998712699189e+02 0 0 0
5433 156 4 0.0000000000000000e+00 -5.1326881834649377e+01 -5.9048689661051398e+01 -1.4403885440714890e+02 0 0 0
6333 181 4 0.0000000000000000e+00 -9.5822444174347069e+01 -4.0362516979627841e+01 -1.5020510060341337e+02 0 0 0
2091 60 2 0.0000000000000000e+00 -8.6522242494228010e+01 -4.8271677350002001e+01 -1.5304351209330636e+02 0 0 0
2090 60 1 0.0000000000000000e+00 -8.2517167655224000e+01 -3.9792266863510079e+01 -1.5717777618809399e+02 0 0 0
4550 130 4 0.0000000000000000e+00 -7.6112231369227302e+01 -4.2192535128247016e+01 -1.4946151077712918e+02 0 0 0
1376 40 1 0.0000000000000000e+00 -8.0936561207766459e+01 -4.9753820479106452e+01 -1.4470613233094286e+02 0 0 0
5431 156 4 0.0000000000000000e+00 -6.3131205415897320e+01 -4.6840609381214207e+01 -1.5259040327188438e+02 0 0 0
3023 87 2 0.0000000000000000e+00 -4.1824387511740532e+01 -4.7174561605782273e+01 -1.5437818550842923e+02 0 0 0
3024 87 2 0.0000000000000000e+00 -4.6036174529543274e+01 -4.6815459815546490e+01 -1.4531515641666761e+02 0 0 0
4545 130 4 0.0000000000000000e+00 -3.4719906460937750e+01 -4.1044228717657148e+01 -1.5129963472559203e+02 0 0 0
4544 130 4 0.0000000000000000e+00 -2.9288995961165373e+01 -4.7776411520001830e+01 -1.4732645360254281e+02 0 0 0
6334 181 4 0.0000000000000000e+00 -9.8919163776329469e+01 -3.4005677551138717e+01 -1.5677315837605170e+02 0 0 0
5542 159 4 0.0000000000000000e+00 -9.5324208300258150e+01 -2.8183753219106567e+01 -1.4777367271818167e+02 0 0 0
2089 60 2 0.0000000000000000e+00 -8.0296963692633256e+01 -3.3376054965706949e+01 -1.4954495049870809e+02 0 0 0
4549 130 4 0.0000000000000000e+00 -6.9550374626840721e+01 -3.4950965110257030e+01 -1.4605433702927331e+02 0 0 0
4548 130 4 0.0000000000000000e+00 -5.9818639352841778e+01 -3.6889744319095989e+01 -1.4849973351405208e+02 0 0 0
3019 87 2 0.0000000000000000e+00 -6.4743366443706492e+01 -2.5585699387760837e+01 -1.5225531353384832e+02 0 0 0
3020 87 2 0.0000000000000000e+00 -5.5178079064672382e+01 -2.7227703297408958e+01 -1.5366696606275318e+02 0 0 0
4547 130 3 0.0000000000000000e+00 -5.0442531126622320e+01 -3.7411797982001033e+01 -1.4827535335335591e+02 0 0 0
4733 136 4 0.0000000000000000e+00 -4.2859313642563542e+01 -2.5468214676531261e+01 -1.4428004369418781e+02 0 0 0
4546 130 4 0.0000000000000000e+00 -4.1270568393318939e+01 -3.4463201309638841e+01 -1.5195090838081532e+02 0 0 0
4744 136 4 0.0000000000000000e+00 -1.1007200446466784e+02 -1.3302335312112866e+01 -1.4790502590151141e+02 0 0 0
4745 136 4 0.0000000000000000e+00 -1.1528628385437220e+02 -2.1607267070794020e+01 -1.4853637023550110e+02 0 0 0
1629 47 2 0.0000000000000000e+00 -8.3624881028502870e+01 -1.7539435905958104e+01 -1.5217061386317678e+02 0 0 0
5541 159 3 0.0000000000000000e+00 -9.3053056243403290e+01 -1.8722184988939805e+01 -1.4479774920775753e+02 0 0 0
1630 47 2 0.0000000000000000e+00 -7.4926699908358628e+01 -2.2666113502964318e+01 -1.5360792938144547e+02 0 0 0
3017 87 2 0.0000000000000000e+00 -7.4769770013686582e+01 -1.5922644226060980e+01 -1.4709507002996634e+02 0 0 0
1623 47 2 0.0000000000000000e+00 -5.7500561761965777e+01 -1.3261072748008003e+01 -1.5462799470501099e+02 0 0 0
1622 47 2 0.0000000000000000e+00 -5.5056094173095836e+01 -1.8322597858530610e+01 -1.4589450302004292e+02 0 0 0
4732 136 4 0.0000000000000000e+00 -4.2032829993399794e+01 -1.5962156058337094e+01 -1.4829378655533051e+02 0 0 0
4743 136 3 0.0000000000000000e+00 -1.0205640771362867e+02 -8.2253214397455547e+00 -1.5138487988549849e+02 0 0 0
1628 47 1 0.0000000000000000e+00 -9.0391477088325900e+01 -1.0625243185149770e+01 -1.5158325454478970e+02 0 0 0
3015 87 2 0.0000000000000000e+00 -8.4566169582440963e+01 3.9022739236617865e-01 -1.4687442132249041e+02 0 0 0
3016 87 2 0.0000000000000000e+00 -8.0528552139801107e+01 -8.3311739821635484e+00 -1.5013064745455995e+02 0 0 0
4739 136 4 0.0000000000000000e+00 -7.0506803840053351e+01 8.7472920291320699e-01 -1.5027793964964874e+02 0 0 0
4738 136 4 0.0000000000000000e+00 -6.5295231100028872e+01 -4.9008434071406324e+00 -1.4407982583030358e+02 0 0 0
4731 136 4 0.0000000000000000e+00 -4.4917578198022944e+01 -7.7455407571033144e+00 -1.5343231147008495e+02 0 0 0
2073 60 2 0.0000000000000000e+00 -1.4805330098581177e+02 1.2756841720936269e+01 -1.5109364566444469e+02 0 0 0
2074 60 2 0.0000000000000000e+00 -1.3914719724680020e+02 9.3973754907394653e+00 -1.5342812155747941e+02 0 0 0
2075 60 2 0.0000000000000000e+00 -1.3041844637400166e+02 7.6262389395981787e+00 -1.4883358973230898e+02 0 0 0
6314 181 4 0.0000000000000000e+00 -1.0994239911018484e+02 1.1262378102689702e+01 -1.5161263627983081e+02 0 0 0
2237 64 1 0.0000000000000000e+00 -1.0177437510954094e+02 3.0452152090668894e+00 -1.5353878112385837e+02 0 0 0
6315 181 4 0.0000000000000000e+00 -1.0285374762031785e+02 7.6227719897271493e+00 -1.4578410624946761e+02 0 0 0
2238 64 2 0.0000000000000000e+00 -9.3972221063354311e+01 8.1688894989780447e+00 -1.4872472680104730e+02 0 0 0
3014 87 1 0.0000000000000000e+00 -8.3687312769800229e+01 9.8916187924133521e+00 -1.4639212502014453e+02 0 0 0
4435 127 3 0.0000000000000000e+00 -8.7835077584800089e+01 1.3515516679606929e+01 -1.5636454726235695e+02 0 0 0
4740 136 4 0.0000000000000000e+00 -7.8388231883022982e+01 2.5868537049183948e+00 -1.5599183813303975e+02 0 0 0
4726 136 4 0.0000000000000000e+00 -6.8799314626838054e+01 1.0041015215484245e+01 -1.5372931054907846e+02 0 0 0
2072 60 2 0.0000000000000000e+00 -1.4996678987724229e+02 2.2711415454365845e+01 -1.4974184964158715e+02 0 0 0
6312 181 4 0.0000000000000000e+00 -1.2706235408584891e+02 2.1320633373135024e+01 -1.4798755058536935e+02 0 0 0
6313 181 4 0.0000000000000000e+00 -1.1777025368052144e+02 1.7850739488524514e+01 -1.5104911336514138e+02 0 0 0
4434 127 4 0.0000000000000000e+00 -8.9752497521618082e+01 2.0862322826501050e+01 -1.5043795707972708e+02 0 0 0
2219 64 2 0.0000000000000000e+00 -7.4335268693450146e+01 -7.6041897807957469e+01 -1.3072514906618380e+02 0 0 0
2220 64 2 0.0000000000000000e+00 -6.9976700846631971e+01 -6.8520811032052393e+01 -1.3618732286670297e+02 0 0 0
5436 156 3 0.0000000000000000e+00 -3.2189184629485318e+01 -7.5101158713710532e+01 -1.3796716302961215e+02 0 0 0
5435 156 4 0.0000000000000000e+00 -3.9204674179617427e+01 -6.7714072330909815e+01 -1.3602650520323806e+02 0 0 0
2629 76 1 0.0000000000000000e+00 -2.8798754391493400e+01 -6.6237557550271504e+01 -1.3258609843785069e+02 0 0 0
2521 73 2 0.0000000000000000e+00 -1.5885422126463166e+02 -6.2606816615745601e+01 -1.3075761871720275e+02 0 0 0
2094 60 2 0.0000000000000000e+00 -1.0952459186922862e+02 -5.9503506909542480e+01 -1.3852103843678961e+02 0 0 0
2095 60 2 0.0000000000000000e+00 -1.1749385289024399e+02 -5.6205906097003201e+01 -1.3389763353851311e+02 0 0 0
1375 40 2 0.0000000000000000e+00 -8.6767832250817378e+01 -5.6281924988140098e+01 -1.4064948957000524e+02 0 0 0
1374 40 2 0.0000000000000000e+00 -9.3894327011837674e+01 -6.2464367124693403e+01 -1.3656383165737842e+02 0 0 0
6504 186 4 0.0000000000000000e+00 -5.8908733236616733e+01 -6.5019884675830212e+01 -1.4029655954659614e+02 0 0 0
6503 186 4 0.0000000000000000e+00 -6.2014784178207371e+01 -6.0425232309574916e+01 -1.3216862111246928e+02 0 0 0
5434 156 4 0.0000000000000000e+00 -4.1801303811462660e+01 -5.9180683904356790e+01 -1.4174611592694885e+02 0 0 0
2096 60 2 0.0000000000000000e+00 -1.1675016592303800e+02 -4.6528425267964415e+01 -1.3560428266946812e+02 0 0 0
6332 181 3 0.0000000000000000e+00 -9.0763360293071344e+01 -4.4247153883960323e+01 -1.4275412030097456e+02 0 0 0
6331 181 4 0.0000000000000000e+00 -8.2047156729236022e+01 -4.0532580904893038e+01 -1.3925499607984932e+02 0 0 0
1377 40 2 0.0000000000000000e+00 -7.3029732972815367e+01 -4.5327640900862747e+01 -1.4060573028688657e+02 0 0 0
1378 40 2 0.0000000000000000e+00 -6.6308978704918644e+01 -4.9128585901110846e+01 -1.3382486858137503e+02 0 0 0
3025 87 2 0.0000000000000000e+00 -4.0438549367454804e+01 -4.0399735730790418e+01 -1.3988524588777466e+02 0 0 0
2097 60 1 0.0000000000000000e+00 -1.1413015920621510e+02 -3.6896707708878090e+01 -1.3532056221985655e+02 0 0 0
2098 60 2 0.0000000000000000e+00 -1.0975598881153445e+02 -2.7475845672053200e+01 -1.3736564266126629e+02 0 0 0
4746 136 4 0.0000000000000000e+00 -1.2149085273626123e+02 -2.6388795850446375e+01 -1.4240155353933793e+02 0 0 0
5543 159 4 0.0000000000000000e+00 -1.0136910180129958e+02 -3.1124657351162902e+01 -1.4006157163605269e+02 0 0 0
5544 159 4 0.0000000000000000e+00 -1.0285105465655279e+02 -3.5886691554266633e+01 -1.3052152692178950e+02 0 0 0
2088 60 2 0.0000000000000000e+00 -8.4863233439470960e+01 -2.7161045024253770e+01 -1.4330633066447774e+02 0 0 0
6330 181 4 0.0000000000000000e+00 -7.4558750854911239e+01 -3.7137093644121698e+01 -1.3374129555589428e+02 0 0 0
6329 181 4 0.0000000000000000e+00 -7.4908416132391579e+01 -2.7783144940756848e+01 -1.3154132766460947e+02 0 0 0
1620 47 2 0.0000000000000000e+00 -6.3443913866760873e+01 -2.8717850080939606e+01 -1.3444627090931343e+02 0 0 0
1621 47 1 0.0000000000000000e+00 -5.6567789080117144e+01 -2.6525599509322745e+01 -1.4071641195946961e+02 0 0 0
4734 136 4 0.0000000000000000e+00 -4.4403518405701774e+01 -3.1938442373325362e+01 -1.3752419028844017e+02 0 0 0
3026 87 2 0.0000000000000000e+00 -3.6432105375189217e+01 -3.6382410994392693e+01 -1.3170748551365617e+02 0 0 0
4747 136 4 0.0000000000000000e+00 -1.2188474156194467e+02 -2.4017854315565113e+01 -1.3223622279941227e+02 0 0 0
2099 60 2 0.0000000000000000e+00 -1.0581642146766868e+02 -1.8631264591131764e+01 -1.3862802733816702e+02 0 0 0
2087 60 2 0.0000000000000000e+00 -8.7118688147083247e+01 -2.2975281169508413e+01 -1.3422919631839827e+02 0 0 0
5540 159 4 0.0000000000000000e+00 -8.6058514684380114e+01 -1.2977784578185465e+01 -1.4066467455163917e+02 0 0 0
3018 87 2 0.0000000000000000e+00 -6.8133447791719277e+01 -2.2433309994543741e+01 -1.4397769155814501e+02 0 0 0
4736 136 3 0.0000000000000000e+00 -5.7742558531218904e+01 -1.8067816846692359e+01 -1.3360985919127890e+02 0 0 0
4735 136 4 0.0000000000000000e+00 -5.0068775806192008e+01 -2.4397298001737074e+01 -1.3390086576157432e+02 0 0 0
2100 60 2 0.0000000000000000e+00 -1.0018709879405806e+02 -1.0494405117297958e+01 -1.3922976595543864e+02 0 0 0
5539 159 4 0.0000000000000000e+00 -8.3729339705517148e+01 -3.7408130664770947e+00 -1.3805407562953789e+02 0 0 0
5538 159 4 0.0000000000000000e+00 -7.6456890132665436e+01 2.1626216432885856e+00 -1.3621835952219035e+02 0 0 0
4737 136 4 0.0000000000000000e+00 -6.3673206381976705e+01 -1.0435717491890884e+01 -1.3605006671571041e+02 0 0 0
6311 181 3 0.0000000000000000e+00 -1.2908843899986803e+02 1.5775093948596664e+01 -1.3989795058124648e+02 0 0 0
2076 60 1 0.0000000000000000e+00 -1.2249901507104259e+02 6.6918454135183101e+00 -1.4220090920261265e+02 0 0 0
2077 60 2 0.0000000000000000e+00 -1.1418272101243473e+02 1.1365148806165440e+01 -1.4236328376508825e+02 0 0 0
2078 60 2 0.0000000000000000e+00 -1.1338910834910946e+02 1.1320775190533183e+01 -1.3241168389930078e+02 0 0 0
6316 181 4 0.0000000000000000e+00 -1.0034829157972327e+02 5.0999710811464105e+00 -1.3621756819821448e+02 0 0 0
5535 159 4 0.0000000000000000e+00 -9.7030417823910739e+01 1.3127526849121427e+01 -1.3167553077340702e+02 0 0 0
2239 64 2 0.0000000000000000e+00 -9.2157420095666481e+01 1.3663629426568427e+01 -1.4064343351038499e+02 0 0 0
6310 181 4 0.0000000000000000e+00 -1.3049558937989718e+02 1.9748023133558043e+01 -1.3131099630286815e+02 0 0 0
1803 52 1 0.0000000000000000e+00 -1.1582055704663927e+02 2.1433302854736265e+01 -1.3212575557973256e+02 0 0 0
5534 159 3 0.0000000000000000e+00 -1.0498690128075084e+02 1.8386253288112915e+01 -1.3091289578839871e+02 0 0 0
5533 159 4 0.0000000000000000e+00 -1.0500131576437938e+02 2.7084862699844475e+01 -1.3477182492963340e+02 0 0 0
2240 64 2 0.0000000000000000e+00 -9.4072685650329547e+01 2.2599303524273825e+01 -1.3568188779334673e+02 0 0 0
3013 87 2 0.0000000000000000e+00 -7.9102148217230024e+01 1.7198259522685102e+01 -1.4166544482504139e+02 0 0 0
3012 87 2 0.0000000000000000e+00 -7.4359420132944734e+01 2.6426773806210893e+01 -1.4051264261396977e+02 0 0 0
4200 120 4 0.0000000000000000e+00 -1.0110837899558450e+02 -8.9656230177340660e+01 -1.2600377790890437e+02 0 0 0
4199 120 4 0.0000000000000000e+00 -1.0211600047364374e+02 -8.6222838229095416e+01 -1.1689278977507183e+02 0 0 0
2218 64 2 0.0000000000000000e+00 -8.0866091732500479e+01 -8.3302004492981297e+01 -1.2845373751595082e+02 0 0 0
1373 40 2 0.0000000000000000e+00 -1.0061171320011226e+02 -6.5809827644237075e+01 -1.2955422853560665e+02 0 0 0
1372 40 2 0.0000000000000000e+00 -1.0194400056230766e+02 -7.0409646649048014e+01 -1.2059781330158698e+02 0 0 0
2217 64 2 0.0000000000000000e+00 -8.5342519805260281e+01 -7.5155800548033426e+01 -1.2507913234373649e+02 0 0 0
2216 64 1 0.0000000000000000e+00 -8.6349183072993469e+01 -6.7203895081147976e+01 -1.1924568323378104e+02 0 0 0
6501 186 4 0.0000000000000000e+00 -7.2975961461424220e+01 -7.0506391713319758e+01 -1.2109403598981366e+02 0 0 0
2630 76 2 0.0000000000000000e+00 -3.4303839343638494e+01 -7.0799735372087696e+01 -1.2608163453729854e+02 0 0 0
2631 76 2 0.0000000000000000e+00 -3.6097408108046949e+01 -7.4073255349193118e+01 -1.1719333972150901e+02 0 0 0
2522 73 2 0.0000000000000000e+00 -1.5060079173629430e+02 -6.1956961074453581e+01 -1.2514833310584154e+02 0 0 0
2523 73 2 0.0000000000000000e+00 -1.4296409256437011e+02 -5.6222181181863306e+01 -1.2191566987754003e+02 0 0 0
6502 186 4 0.0000000000000000e+00 -6.6865681632546938e+01 -6.4977507409635194e+01 -1.2521912204555420e+02 0 0 0
6513 187 4 0.0000000000000000e+00 -1.1464360147183407e+02 -4.0896621426145856e+01 -1.1715975470616576e+02 0 0 0
5545 159 4 0.0000000000000000e+00 -1.0036615155422361e+02 -4.0646658405627420e+01 -1.2213681686849907e+02 0 0 0
2213 64 2 0.0000000000000000e+00 -7.7224280520517738e+01 -4.3225688172722514e+01 -1.1739451801482305e+02 0 0 0
1379 40 2 0.0000000000000000e+00 -5.9651130679426203e+01 -4.7606429902397991e+01 -1.2681674770484784e+02 0 0 0
1380 40 2 0.0000000000000000e+00 -6.5407509570480073e+01 -4.5070060396397004e+01 -1.1824494936878983e+02 0 0 0
6514 187 3 0.0000000000000000e+00 -1.1023072266405471e+02 -3.7347929750261038e+01 -1.2512869434828055e+02 0 0 0
6515 187 4 0.0000000000000000e+00 -1.0812939152438874e+02 -2.8919268176918429e+01 -1.2065138489936092e+02 0 0 0
2211 64 2 0.0000000000000000e+00 -8.3208847187815081e+01 -2.5154674683885897e+01 -1.2345242529093240e+02 0 0 0
2212 64 2 0.0000000000000000e+00 -8.0091503892766198e+01 -3.4662825448687649e+01 -1.2083370936315858e+02 0 0 0
1618 47 2 0.0000000000000000e+00 -5.8372210099097956e+01 -3.3801083202780852e+01 -1.1769506659566198e+02 0 0 0
1619 47 2 0.0000000000000000e+00 -6.3290991467223648e+01 -3.3268484466106358e+01 -1.2603693006536646e+02 0 0 0
5765 165 3 0.0000000000000000e+00 -3.0361008318741817e+01 -3.1712360387094758e+01 -1.1880129951765969e+02 0 0 0
4748 136 4 0.0000000000000000e+00 -1.1905521380398095e+02 -1.7297153100196386e+01 -1.2433573197260169e+02 0 0 0
2085 60 2 0.0000000000000000e+00 -1.0353694895888903e+02 -1.4810339404992654e+01 -1.2718938957108359e+02 0 0 0
2086 60 2 0.0000000000000000e+00 -9.4369208609237035e+01 -1.8753308841541109e+01 -1.2860857646830857e+02 0 0 0
2210 64 2 0.0000000000000000e+00 -8.9048726199689156e+01 -1.8395636827424667e+01 -1.1854728454953118e+02 0 0 0
6328 181 4 0.0000000000000000e+00 -6.8827775506588452e+01 -2.1393369275384206e+01 -1.2658778578626557e+02 0 0 0
6327 181 4 0.0000000000000000e+00 -6.3537504157686293e+01 -1.2666746261202748e+01 -1.2647392591254514e+02 0 0 0
2084 60 2 0.0000000000000000e+00 -1.0777729107588490e+02 -7.7660921499695030e+00 -1.2160174912097926e+02 0 0 0
6318 181 3 0.0000000000000000e+00 -9.8150862792300401e+01 -6.5001805824597936e+00 -1.1992329457738879e+02 0 0 0
6317 181 4 0.0000000000000000e+00 -1.0003602726418032e+02 -8.3079807752718404e-01 -1.2783835374727731e+02 0 0 0
6326 181 4 0.0000000000000000e+00 -6.5609112143878022e+01 -7.0341333658412397e+00 -1.1948351741808472e+02 0 0 0
5131 147 4 0.0000000000000000e+00 -5.5121355357490010e+01 1.1374456511791273e-01 -1.1888362315111652e+02 0 0 0
2079 60 2 0.0000000000000000e+00 -1.0909904912111415e+02 1.0366453666854557e+01 -1.2326894611452629e+02 0 0 0
1540 44 2 0.0000000000000000e+00 -9.5978467661671942e+01 1.5082414654583781e+01 -1.2194506417392317e+02 0 0 0
5536 159 4 0.0000000000000000e+00 -9.0603543927969213e+01 7.8665656268884634e+00 -1.2556726847361682e+02 0 0 0
5537 159 4 0.0000000000000000e+00 -8.0830214601471610e+01 8.1810424040291387e+00 -1.2941715967713222e+02 0 0 0
6324 181 4 0.0000000000000000e+00 -7.5516953647570176e+01 9.8139754127497536e+00 -1.2080197909443795e+02 0 0 0
6325 181 3 0.0000000000000000e+00 -6.8084947750168880e+01 2.9416170103066546e+00 -1.1918238602779812e+02 0 0 0
5132 147 4 0.0000000000000000e+00 -5.6722901933074390e+01 1.0246066949229904e+01 -1.1879569769800086e+02 0 0 0
6309 181 4 0.0000000000000000e+00 -1.2585296139757207e+02 2.7266115015531543e+01 -1.2648987480995126e+02 0 0 0
1802 52 2 0.0000000000000000e+00 -1.1991235729923167e+02 1.7084857721909906e+01 -1.2400749118810633e+02 0 0 0
2080 60 2 0.0000000000000000e+00 -1.0800543653766945e+02 1.7721072050825999e+01 -1.1662023200215421e+02 0 0 0
6323 181 4 0.0000000000000000e+00 -7.9819228728035625e+01 1.8308817679563173e+01 -1.2267295858780811e+02 0 0 0
5133 147 4 0.0000000000000000e+00 -5.8276615091874376e+01 2.0018712366727900e+01 -1.1835274010338081e+02 0 0 0
6161 177 4 0.0000000000000000e+00 -3.9907771404110107e+01 2.8419325497122493e+01 -1.2323271052497535e+02 0 0 0
1368 40 2 0.0000000000000000e+00 -9.0491904308599629e+01 -1.0262963938969908e+02 -1.0755233698964783e+02 0 0 0
1369 40 1 0.0000000000000000e+00 -9.4012576810516194e+01 -9.3533671647701951e+01 -1.0617360201832832e+02 0 0 0
4198 120 4 0.0000000000000000e+00 -1.0674660528443101e+02 -8.4647735635878917e+01 -1.0840291798864051e+02 0 0 0
1370 40 2 0.0000000000000000e+00 -9.3668455445345430e+01 -8.3913419571411964e+01 -1.0923242324677574e+02 0 0 0
2807 81 2 0.0000000000000000e+00 -8.0762884580126425e+01 -8.3294387631691734e+01 -1.0313117279698747e+02 0 0 0
2808 81 2 0.0000000000000000e+00 -7.2761940211249168e+01 -8.2478253062772751e+01 -1.0889312436903593e+02 0 0 0
2810 81 2 0.0000000000000000e+00 -5.5546035006279034e+01 -8.4728984010669009e+01 -1.0702621454506162e+02 0 0 0
2809 81 2 0.0000000000000000e+00 -6.3358290624980079e+01 -8.2206703343816500e+01 -1.1271484312245082e+02 0 0 0
1371 40 2 0.0000000000000000e+00 -9.6207353783125640e+01 -7.7321335659290241e+01 -1.1609795361368211e+02 0 0 0
6498 186 4 0.0000000000000000e+00 -9.6769877452430634e+01 -7.4198716864024846e+01 -1.0413616013782139e+02 0 0 0
6499 186 4 0.0000000000000000e+00 -8.8112197270671771e+01 -7.3331835642479319e+01 -1.0959873589824346e+02 0 0 0
6500 186 3 0.0000000000000000e+00 -7.9563886516241681e+01 -7.5067390345888271e+01 -1.1478154190005326e+02 0 0 0
3993 115 4 0.0000000000000000e+00 -4.7958896036911277e+01 -7.8963538831909801e+01 -1.0447404248722482e+02 0 0 0
3992 115 4 0.0000000000000000e+00 -5.4101086035555930e+01 -7.1138344049775966e+01 -1.0361876816710654e+02 0 0 0
2632 76 2 0.0000000000000000e+00 -3.5368125891611172e+01 -7.7646556865594945e+01 -1.0785596127677590e+02 0 0 0
6493 186 3 0.0000000000000000e+00 -1.3565192059878618e+02 -5.7944249381695634e+01 -1.0537549801033001e+02 0 0 0
6494 186 4 0.0000000000000000e+00 -1.2598231008804696e+02 -6.1392224474207481e+01 -1.0520497410315798e+02 0 0 0
3744 107 4 0.0000000000000000e+00 -9.0106218275935660e+01 -6.4036075037580986e+01 -1.0934877395801615e+02 0 0 0
3745 107 4 0.0000000000000000e+00 -8.7952133514066119e+01 -5.5126858642946594e+01 -1.1227494666088958e+02 0 0 0
2801 81 2 0.0000000000000000e+00 -7.0824900276837127e+01 -6.2957008292419147e+01 -1.0686729384839745e+02 0 0 0
2215 64 2 0.0000000000000000e+00 -8.0556938592922975e+01 -6.0793780104304254e+01 -1.1457924092041317e+02 0 0 0
2524 73 1 0.0000000000000000e+00 -1.4046453304016097e+02 -5.1058263073202312e+01 -1.1345220861666668e+02 0 0 0
6511 187 4 0.0000000000000000e+00 -1.3056321631681095e+02 -4.7058125870001490e+01 -1.1533774069353196e+02 0 0 0
2525 73 2 0.0000000000000000e+00 -1.3526881494775012e+02 -4.5862146848358435e+01 -1.0621813388490010e+02 0 0 0
6512 187 4 0.0000000000000000e+00 -1.2132664763309636e+02 -4.6623081578173220e+01 -1.1172946987768950e+02 0 0 0
5546 159 4 0.0000000000000000e+00 -9.6185156009547669e+01 -4.0280177681839213e+01 -1.1308860888027220e+02 0 0 0
5547 159 4 0.0000000000000000e+00 -8.7966743939628799e+01 -4.2737773214202953e+01 -1.0725919936131585e+02 0 0 0
2214 64 2 0.0000000000000000e+00 -7.7054063482971046e+01 -5.1687822181085991e+01 -1.1162822672564732e+02 0 0 0
1381 40 2 0.0000000000000000e+00 -6.6796739197396263e+01 -4.8184633798311360e+01 -1.0856973118790890e+02 0 0 0
1617 47 2 0.0000000000000000e+00 -5.0543703301997333e+01 -4.0335019237521450e+01 -1.1570254444975546e+02 0 0 0
1616 47 2 0.0000000000000000e+00 -4.1503957133239950e+01 -4.3739061196271308e+01 -1.1486554647005937e+02 0 0 0
1615 47 2 0.0000000000000000e+00 -3.5906662865160747e+01 -4.5371347902708010e+01 -1.0610543495041291e+02 0 0 0
2537 73 2 0.0000000000000000e+00 -1.1970371608348847e+02 -3.5243379165821125e+01 -1.0538425000375504e+02 0 0 0
2536 73 2 0.0000000000000000e+00 -1.1108424084800386e+02 -3.1472258195270683e+01 -1.0659950628790220e+02 0 0 0
1534 44 2 0.0000000000000000e+00 -6.4153470157662852e+01 -2.6571856708308335e+01 -1.0360152539761397e+02 0 0 0
5766 165 4 0.0000000000000000e+00 -3.4410515498629834e+01 -3.3957502451815813e+01 -1.1033746277862227e+02 0 0 0
5767 165 4 0.0000000000000000e+00 -2.8841192643447979e+01 -2.8268221053166702e+01 -1.0477543480663030e+02 0 0 0
2555 73 2 0.0000000000000000e+00 -1.3257369225877818e+02 -1.7215323578416712e+01 -1.0723469834819147e+02 0 0 0
4749 136 4 0.0000000000000000e+00 -1.1293678764330970e+02 -1.5948234165492323e+01 -1.1586296342087745e+02 0 0 0
6516 187 4 0.0000000000000000e+00 -1.0475320104161074e+02 -2.2150531945537217e+01 -1.1511181564327791e+02 0 0 0
6517 187 4 0.0000000000000000e+00 -9.7881671731785062e+01 -1.5913596675282612e+01 -1.1201185149078765e+02 0 0 0
6518 187 4 0.0000000000000000e+00 -9.1757793315405038e+01 -1.8779026544692865e+01 -1.0519399275074463e+02 0 0 0
1535 44 2 0.0000000000000000e+00 -6.9033308975463342e+01 -2.0653577357673946e+01 -1.0951069421083687e+02 0 0 0
1531 44 2 0.0000000000000000e+00 -3.5283259163589065e+01 -1.8852454575821973e+01 -1.0379246881559152e+02 0 0 0
2554 73 2 0.0000000000000000e+00 -1.2668856888799539e+02 -9.9035623082797422e+00 -1.0426326601002205e+02 0 0 0
6296 180 4 0.0000000000000000e+00 -1.3433959765487853e+02 -3.0785747046923624e+00 -1.0406761223939746e+02 0 0 0
4750 136 3 0.0000000000000000e+00 -1.1401705732109346e+02 -1.0679316211591267e+01 -1.0770967374368490e+02 0 0 0
2083 60 1 0.0000000000000000e+00 -1.0556335296771218e+02 -5.3521030183621079e+00 -1.1238522858342481e+02 0 0 0