LAMMPS data file via write_data, version 5 Jun 2019, timestep = 310000000

7000 atoms
4 atom types
7284 bonds
3 bond types
6600 angles
2 angle types

-5.0000000000000000e+02 5.0000000000000000e+02 xlo xhi
-5.0000000000000000e+02 5.0000000000000000e+02 ylo yhi
-5.0000000000000000e+02 5.0000000000000000e+02 zlo zhi

Masses

1 1000
2 1000
3 1000
4 1000

Pair Coeffs # lj/cut

1 0.178 10
2 0.178 10
3 0.178 10
4 0.178 10

Angle Coeffs # cosine

1 2
2 2

Atoms # full

2066 60 2 0.0000000000000000e+00 -1.1220008429868642e+02 9.7554383509415068e+00 -1.9709719656368972e+02 0 0 0
5915 169 4 0.0000000000000000e+00 -1.2786436232023641e+02 1.3697551785643560e+00 -1.8280817805039061e+02 0 0 0
5914 169 4 0.0000000000000000e+00 -1.2432807458473944e+02 9.7769119784911478e+00 -1.7911418302698959e+02 0 0 0
2067 60 2 0.0000000000000000e+00 -1.0830194242209652e+02 1.5341739947351696e+01 -1.9014957946217538e+02 0 0 0
2068 60 2 0.0000000000000000e+00 -1.0895589818069081e+02 1.9225555347752532e+01 -1.8143179614330455e+02 0 0 0
6509 186 4 0.0000000000000000e+00 -7.5801840988306196e+01 -6.0286803450292425e+01 -1.6601722019909914e+02 0 0 0
6510 186 4 0.0000000000000000e+00 -7.2094857798712269e+01 -6.2176116798566198e+01 -1.7429123666812572e+02 0 0 0
5913 169 4 0.0000000000000000e+00 -1.1845657614559478e+02 1.5839764942545301e+01 -1.7337044046840992e+02 0 0 0
2069 60 1 0.0000000000000000e+00 -1.0770869473244180e+02 1.5649034983254035e+01 -1.7192926011611968e+02 0 0 0
2070 60 2 0.0000000000000000e+00 -1.0015462226684105e+02 1.0892694687151035e+01 -1.6667974465384142e+02 0 0 0
562 17 2 0.0000000000000000e+00 -1.3392814621948875e+02 3.0086016732995912e+01 -1.6388661856903357e+02 0 0 0
5912 169 3 0.0000000000000000e+00 -1.1461914524465216e+02 2.4589884510671773e+01 -1.7043433312608775e+02 0 0 0
5426 156 4 0.0000000000000000e+00 -6.9387869064927841e+01 -7.8114712906162239e+01 -1.5734488834076205e+02 0 0 0
2224 64 2 0.0000000000000000e+00 -8.6155957050436626e+01 -6.5888235591639017e+01 -1.5425221763053028e+02 0 0 0
2225 64 2 0.0000000000000000e+00 -8.7138655557944574e+01 -6.1262409686606183e+01 -1.6274686457808326e+02 0 0 0
2226 64 2 0.0000000000000000e+00 -8.9872231829763464e+01 -5.3400200251397010e+01 -1.5683014720992031e+02 0 0 0
6508 186 4 0.0000000000000000e+00 -7.6904464776737129e+01 -6.1850617037047080e+01 -1.5589738055612000e+02 0 0 0
2227 64 2 0.0000000000000000e+00 -9.1197351863496351e+01 -4.3528669978923858e+01 -1.5527228203194150e+02 0 0 0
2228 64 2 0.0000000000000000e+00 -8.7984554102954718e+01 -3.4107250594096719e+01 -1.5496479934700972e+02 0 0 0
2229 64 2 0.0000000000000000e+00 -8.1984618414647699e+01 -2.5960486616006957e+01 -1.5273667146802961e+02 0 0 0
2231 64 2 0.0000000000000000e+00 -7.0179205301398738e+01 -2.2008348956300907e+01 -1.6249013078580566e+02 0 0 0
2230 64 1 0.0000000000000000e+00 -7.4450959690126879e+01 -2.0041335196973641e+01 -1.5381123244348731e+02 0 0 0
4443 127 4 0.0000000000000000e+00 -7.3687598358519054e+01 -1.0484895624738021e+01 -1.5992413451107711e+02 0 0 0
6306 181 4 0.0000000000000000e+00 -1.2151639030660110e+02 -4.6404223937250322e+00 -1.5119307464282323e+02 0 0 0
6305 181 4 0.0000000000000000e+00 -1.1684391496562155e+02 4.8830443386215858e+00 -1.5213397698934719e+02 0 0 0
2072 60 2 0.0000000000000000e+00 -9.6919628785048587e+01 8.3141498632223563e+00 -1.5093573401337380e+02 0 0 0
2071 60 2 0.0000000000000000e+00 -9.3605532688766772e+01 1.1675100433920797e+01 -1.6004885233775641e+02 0 0 0
561 17 2 0.0000000000000000e+00 -1.4166998673530435e+02 2.5395859052131083e+01 -1.6066078376055361e+02 0 0 0
563 17 2 0.0000000000000000e+00 -1.2682992695350710e+02 2.7386273382952218e+01 -1.5738215198430822e+02 0 0 0
564 17 1 0.0000000000000000e+00 -1.2191390292407836e+02 2.1776410206659467e+01 -1.5006366417378729e+02 0 0 0
2223 64 1 0.0000000000000000e+00 -8.4322280798527558e+01 -6.5690307431534308e+01 -1.4433820492000393e+02 0 0 0
6506 186 4 0.0000000000000000e+00 -7.3398109438948765e+01 -7.1515941563346232e+01 -1.4089580752341331e+02 0 0 0
6507 186 3 0.0000000000000000e+00 -7.3665840829947555e+01 -6.2717174918740241e+01 -1.4639393328681450e+02 0 0 0
6308 181 4 0.0000000000000000e+00 -1.2650187231757819e+02 -2.0153493552682775e+01 -1.3951893824102291e+02 0 0 0
6307 181 4 0.0000000000000000e+00 -1.2379327144297206e+02 -1.3394625281286151e+01 -1.4697734034686749e+02 0 0 0
4747 136 4 0.0000000000000000e+00 -7.3243994252840182e+01 -2.3192806172645437e+01 -1.4150698354518616e+02 0 0 0
2555 73 2 0.0000000000000000e+00 -1.2949894915667204e+02 2.2154225744755607e-01 -1.3986459273949143e+02 0 0 0
2079 60 2 0.0000000000000000e+00 -1.1267070014273339e+02 4.0526939818768937e-01 -1.3833642188510620e+02 0 0 0
2073 60 2 0.0000000000000000e+00 -1.0011805101249644e+02 1.7129227053324922e+00 -1.4392144804604933e+02 0 0 0
2074 60 2 0.0000000000000000e+00 -1.0516323417772797e+02 -6.0357452482887322e+00 -1.3954615691928814e+02 0 0 0
4442 127 3 0.0000000000000000e+00 -7.3174074226236229e+01 -9.7076248911659917e+00 -1.4979608817248027e+02 0 0 0
6304 181 3 0.0000000000000000e+00 -1.1329672032673705e+02 1.4110092017470073e+01 -1.4831205268894902e+02 0 0 0
6303 181 4 0.0000000000000000e+00 -1.0667160958604363e+02 1.4311190649825084e+01 -1.4058948387213070e+02 0 0 0
6302 181 4 0.0000000000000000e+00 -9.7006504571249607e+01 1.6343610650073224e+01 -1.4093238913041677e+02 0 0 0
6291 180 4 0.0000000000000000e+00 -1.4891024805956243e+02 2.7095405471077221e+01 -1.3789603422334429e+02 0 0 0
6292 180 4 0.0000000000000000e+00 -1.4302791865869938e+02 1.9551962368989919e+01 -1.4052442428502462e+02 0 0 0
565 17 2 0.0000000000000000e+00 -1.1359641913520598e+02 2.6538329285592340e+01 -1.4669466034221395e+02 0 0 0
566 17 2 0.0000000000000000e+00 -1.0893389235512169e+02 2.9810399472656904e+01 -1.3794081888171942e+02 0 0 0
6301 181 4 0.0000000000000000e+00 -8.9899168201887804e+01 1.8006837464709349e+01 -1.4819734930810068e+02 0 0 0
6504 186 4 0.0000000000000000e+00 -7.6716476341837364e+01 -7.9264766107444359e+01 -1.2418341528042258e+02 0 0 0
6505 186 4 0.0000000000000000e+00 -7.3186124577057569e+01 -7.2439318778879780e+01 -1.3110652771935312e+02 0 0 0
2221 64 2 0.0000000000000000e+00 -8.0813228741166128e+01 -6.5259112584174503e+01 -1.2828347166742248e+02 0 0 0
2222 64 2 0.0000000000000000e+00 -8.5935045002444909e+01 -6.1005747020094638e+01 -1.3517627243030446e+02 0 0 0
2093 60 2 0.0000000000000000e+00 -7.7778409746344124e+01 -5.4919603052774058e+01 -1.3453019577708343e+02 0 0 0
2092 60 2 0.0000000000000000e+00 -7.1283084926850947e+01 -6.2186636760300750e+01 -1.3202104971770797e+02 0 0 0
5542 159 4 0.0000000000000000e+00 -7.0193730327904888e+01 -5.5619283541282989e+01 -1.2332161578923881e+02 0 0 0
2095 60 2 0.0000000000000000e+00 -8.8506356510062815e+01 -4.5325154225060039e+01 -1.2578048646174230e+02 0 0 0
2094 60 2 0.0000000000000000e+00 -8.6623973489443586e+01 -5.0726728039825481e+01 -1.3387605279673937e+02 0 0 0
5540 159 4 0.0000000000000000e+00 -7.2727358714326257e+01 -4.4938653046411815e+01 -1.3514617081515928e+02 0 0 0
6309 181 4 0.0000000000000000e+00 -1.2841750566508571e+02 -2.8257316277701438e+01 -1.3410920946325754e+02 0 0 0
6310 181 4 0.0000000000000000e+00 -1.1949853292216643e+02 -2.5943096200330633e+01 -1.3176114521195981e+02 0 0 0
6311 181 3 0.0000000000000000e+00 -1.1423569843873574e+02 -2.5836148835355356e+01 -1.2384873863633918e+02 0 0 0
5538 159 4 0.0000000000000000e+00 -7.0384859896887292e+01 -2.7706219013699894e+01 -1.2746384219707841e+02 0 0 0
5539 159 4 0.0000000000000000e+00 -6.9493360521794656e+01 -3.5789114764608314e+01 -1.3279402504379601e+02 0 0 0
2077 60 2 0.0000000000000000e+00 -1.2440101486281876e+02 -1.1343543881752945e+01 -1.3015602361521019e+02 0 0 0
2076 60 1 0.0000000000000000e+00 -1.1685344408849409e+02 -1.5705775905480380e+01 -1.2649832224086251e+02 0 0 0
2075 60 2 0.0000000000000000e+00 -1.0957599202028557e+02 -1.0790000061009573e+01 -1.3180077058976900e+02 0 0 0
4749 136 4 0.0000000000000000e+00 -8.2359470427682069e+01 -2.3346465926382589e+01 -1.2600316406983082e+02 0 0 0
4748 136 4 0.0000000000000000e+00 -7.9813525345288397e+01 -1.9998066678348263e+01 -1.3499104902562297e+02 0 0 0
2554 73 2 0.0000000000000000e+00 -1.3496495327326167e+02 -5.6408805714702703e-01 -1.3147544081344901e+02 0 0 0
2078 60 2 0.0000000000000000e+00 -1.2048005468331043e+02 -2.9136435718719613e+00 -1.3266150577773132e+02 0 0 0
2081 60 2 0.0000000000000000e+00 -1.0017864496068584e+02 -3.6612491516747125e+00 -1.2592181897026275e+02 0 0 0
2080 60 2 0.0000000000000000e+00 -1.0847843547790100e+02 9.5565112106849481e-01 -1.2933991438371393e+02 0 0 0
2082 60 2 0.0000000000000000e+00 -9.0586196942245323e+01 -7.5339457676474089e+00 -1.2479190145783933e+02 0 0 0
5535 159 4 0.0000000000000000e+00 -7.4446093707932292e+01 -1.2096471047527455e-01 -1.3157555489354624e+02 0 0 0
5536 159 4 0.0000000000000000e+00 -7.2867958885912884e+01 -9.6307305116848934e+00 -1.3265529122414523e+02 0 0 0
6293 180 4 0.0000000000000000e+00 -1.3734873255590514e+02 1.2628832909464881e+01 -1.3622275250756812e+02 0 0 0
6294 180 4 0.0000000000000000e+00 -1.3118266549502235e+02 8.8951307340110120e+00 -1.3019886203478043e+02 0 0 0
1802 52 2 0.0000000000000000e+00 -9.2371932885918341e+01 1.2328594670173022e+01 -1.2683528576282993e+02 0 0 0
1803 52 1 0.0000000000000000e+00 -8.3526420252647654e+01 1.5957697638103770e+01 -1.2878395028091407e+02 0 0 0
5534 159 3 0.0000000000000000e+00 -7.6464147873923267e+01 7.1412916999130376e+00 -1.2609617663546827e+02 0 0 0
3311 95 2 0.0000000000000000e+00 -1.2621049431641745e+02 2.8775187662184607e+01 -1.2585686615564622e+02 0 0 0
1799 52 2 0.0000000000000000e+00 -1.1202254106799325e+02 2.7159191565598416e+01 -1.2426957811455955e+02 0 0 0
1801 52 2 0.0000000000000000e+00 -9.7740089064407627e+01 1.9693281428288529e+01 -1.3151476061361529e+02 0 0 0
1800 52 2 0.0000000000000000e+00 -1.0467022653488316e+02 2.6259732313758839e+01 -1.2964216933763694e+02 0 0 0
1804 52 2 0.0000000000000000e+00 -7.4570314241484283e+01 2.0618157376299184e+01 -1.2849234603946027e+02 0 0 0
1805 52 2 0.0000000000000000e+00 -7.3794706496253738e+01 3.0722190487916379e+01 -1.2897927237798834e+02 0 0 0
4200 120 4 0.0000000000000000e+00 -8.9792757310419958e+01 -1.0297179169433812e+02 -1.1993734173464931e+02 0 0 0
4199 120 4 0.0000000000000000e+00 -8.1879868591209444e+01 -9.8187507839765260e+01 -1.1596398450674630e+02 0 0 0
1371 40 2 0.0000000000000000e+00 -8.8096903335028301e+01 -8.5353569920983631e+01 -1.1138420300088542e+02 0 0 0
4198 120 4 0.0000000000000000e+00 -7.6165864474745788e+01 -9.0200757619293938e+01 -1.1308817288387840e+02 0 0 0
1372 40 2 0.0000000000000000e+00 -9.3009452043946183e+01 -7.6031353247110047e+01 -1.1251693565151072e+02 0 0 0
1373 40 2 0.0000000000000000e+00 -9.0464343381401406e+01 -6.7607021644146627e+01 -1.1625177080521514e+02 0 0 0
6503 186 4 0.0000000000000000e+00 -7.9887810212491701e+01 -7.6437758909107799e+01 -1.1516503687164575e+02 0 0 0
1374 40 2 0.0000000000000000e+00 -8.1740130897405820e+01 -6.4508922431810149e+01 -1.1496573960451347e+02 0 0 0
2220 64 2 0.0000000000000000e+00 -7.3058843805648209e+01 -6.6154681370435739e+01 -1.2169756561082481e+02 0 0 0
1375 40 2 0.0000000000000000e+00 -7.2872355799736170e+01 -5.8498403958357642e+01 -1.1373009159819917e+02 0 0 0
2100 60 2 0.0000000000000000e+00 -1.2275930945133952e+02 -4.3187590139908963e+01 -1.1342994883923035e+02 0 0 0
2099 60 2 0.0000000000000000e+00 -1.1291430003238750e+02 -4.4025946468804619e+01 -1.1468451877836505e+02 0 0 0
2098 60 2 0.0000000000000000e+00 -1.0389440588423660e+02 -4.6365160511818033e+01 -1.1761070315361296e+02 0 0 0
2097 60 1 0.0000000000000000e+00 -9.8002339318301196e+01 -4.7681343100984833e+01 -1.0971621798167695e+02 0 0 0
2096 60 2 0.0000000000000000e+00 -9.2396992778284044e+01 -4.9566769438155397e+01 -1.1780851182053721e+02 0 0 0
5543 159 4 0.0000000000000000e+00 -7.8621485530514207e+01 -5.0531222525411984e+01 -1.2068235482121301e+02 0 0 0
5544 159 4 0.0000000000000000e+00 -8.1090066888636031e+01 -4.0551463532731375e+01 -1.2110071061912375e+02 0 0 0
4750 136 3 0.0000000000000000e+00 -8.4767409411347117e+01 -2.3733014693578898e+01 -1.1611052799690506e+02 0 0 0
5545 159 4 0.0000000000000000e+00 -7.9444064387745257e+01 -3.3999044665716418e+01 -1.1398158133610764e+02 0 0 0
6318 181 3 0.0000000000000000e+00 -7.0543607235521222e+01 -3.1293995428768770e+01 -1.1328546281925408e+02 0 0 0
6299 180 4 0.0000000000000000e+00 -1.2840588688487739e+02 -1.4980988469094944e+01 -1.1507159455935232e+02 0 0 0
6312 181 4 0.0000000000000000e+00 -1.0713175546427088e+02 -2.1227953608824830e+01 -1.1889589591396614e+02 0 0 0
6313 181 4 0.0000000000000000e+00 -9.9840393555642109e+01 -1.6281990091731114e+01 -1.1342330828346603e+02 0 0 0
2083 60 1 0.0000000000000000e+00 -8.2824520631459450e+01 -1.4261049749363492e+01 -1.2198717281664396e+02 0 0 0
6314 181 4 0.0000000000000000e+00 -9.1469096817857036e+01 -1.1361813273209325e+01 -1.1014535946042409e+02 0 0 0
2084 60 2 0.0000000000000000e+00 -7.4360838734704657e+01 -1.7649443982431404e+01 -1.1896572318878559e+02 0 0 0
2553 73 2 0.0000000000000000e+00 -1.3673712414794863e+02 -6.0028280908113070e+00 -1.2294254522743812e+02 0 0 0
2552 73 1 0.0000000000000000e+00 -1.4207208069428424e+02 -9.1232978739099231e+00 -1.1498316261349255e+02 0 0 0
6296 180 4 0.0000000000000000e+00 -1.3993144867866835e+02 4.7019561933966786e-01 -1.1438239144352086e+02 0 0 0
6300 180 4 0.0000000000000000e+00 -1.2373826782944981e+02 -6.7132167374724148e+00 -1.1758326647910583e+02 0 0 0
5530 158 4 0.0000000000000000e+00 -1.8589318991779643e+02 1.1165468075230386e+01 -1.1712232708815294e+02 0 0 0
6295 180 4 0.0000000000000000e+00 -1.3618009199099623e+02 4.8417021770312836e+00 -1.2207295494693449e+02 0 0 0
3726 107 4 0.0000000000000000e+00 -1.2052004776628296e+02 1.5536526932681420e+01 -1.1294368419649817e+02 0 0 0
5532 159 4 0.0000000000000000e+00 -8.3053882253290737e+01 1.5399534582737063e+01 -1.0964996828336602e+02 0 0 0
5533 159 4 0.0000000000000000e+00 -7.8895892246188808e+01 1.0794939891906946e+01 -1.1708383694834333e+02 0 0 0
5529 158 4 0.0000000000000000e+00 -1.8386457964462991e+02 2.0021196998990032e+01 -1.1246747059392730e+02 0 0 0
5528 158 4 0.0000000000000000e+00 -1.8642677340230020e+02 2.9427234125593401e+01 -1.1105322251291004e+02 0 0 0
3312 95 2 0.0000000000000000e+00 -1.2697239244240446e+02 2.7827645113923150e+01 -1.1621604787330692e+02 0 0 0
3727 107 4 0.0000000000000000e+00 -1.1151295869262071e+02 2.0581655549488875e+01 -1.1485961916308082e+02 0 0 0
3313 95 2 0.0000000000000000e+00 -1.1920305427867235e+02 2.7746078753336082e+01 -1.0983307065926473e+02 0 0 0
5904 169 4 0.0000000000000000e+00 -1.0039784108856533e+02 2.4802217693453997e+01 -1.1123082401659175e+02 0 0 0
5905 169 3 0.0000000000000000e+00 -1.0592390197006519e+02 3.0302545286282438e+01 -1.1754658299991833e+02 0 0 0
576 17 2 0.0000000000000000e+00 -8.6838716378863026e+01 2.4890952949853418e+01 -1.0998044275645103e+02 0 0 0
577 17 2 0.0000000000000000e+00 -8.7712250801329901e+01 2.9262898705220802e+01 -1.1865900876465017e+02 0 0 0
1370 40 2 0.0000000000000000e+00 -8.5003834348610596e+01 -9.1744516887446807e+01 -1.0449915849982092e+02 0 0 0
1369 40 1 0.0000000000000000e+00 -7.8455781318666268e+01 -9.7500733855449468e+01 -9.9101462578769983e+01 0 0 0
6502 186 4 0.0000000000000000e+00 -8.3786880985340858e+01 -7.9459044688233249e+01 -1.0629440556989626e+02 0 0 0
4197 120 3 0.0000000000000000e+00 -7.1517320621723158e+01 -9.0290287354192131e+01 -1.0373437454588645e+02 0 0 0
6501 186 4 0.0000000000000000e+00 -8.7612930297917060e+01 -7.5790364990001564e+01 -9.8003941717820851e+01 0 0 0
2218 64 2 0.0000000000000000e+00 -7.1187934374800861e+01 -6.7471393697654150e+01 -1.0675270608654854e+02 0 0 0
2217 64 2 0.0000000000000000e+00 -8.0637299696537880e+01 -6.6746993222246260e+01 -1.0262136705326772e+02 0 0 0
2522 73 2 0.0000000000000000e+00 -1.4035857072413901e+02 -4.3737229742231811e+01 -9.8912926855415733e+01 0 0 0
2521 73 2 0.0000000000000000e+00 -1.4240144529012625e+02 -4.2443241217947616e+01 -1.0795748870916972e+02 0 0 0
6513 187 4 0.0000000000000000e+00 -1.1419904563907798e+02 -4.0613634633560117e+01 -1.0242040812485823e+02 0 0 0
6514 187 3 0.0000000000000000e+00 -1.0483286580801287e+02 -3.9455574112827307e+01 -1.0625916560912805e+02 0 0 0
5547 159 4 0.0000000000000000e+00 -8.5170179471399706e+01 -4.5452433275481070e+01 -9.8436134530971984e+01 0 0 0
5546 159 4 0.0000000000000000e+00 -8.3781232966141701e+01 -4.1155162148458601e+01 -1.0805912857312293e+02 0 0 0
2210 64 2 0.0000000000000000e+00 -7.4238451336360612e+01 -3.9987284091374441e+01 -9.9239741177998923e+01 0 0 0
6512 187 4 0.0000000000000000e+00 -1.2178223913812259e+02 -3.6244623667595683e+01 -9.7165429135848910e+01 0 0 0
6515 187 4 0.0000000000000000e+00 -9.6916974047854040e+01 -3.4333324938217004e+01 -1.0898026800953974e+02 0 0 0
6516 187 4 0.0000000000000000e+00 -8.7964374718139879e+01 -3.1620101553019847e+01 -1.0438860006885602e+02 0 0 0
6517 187 4 0.0000000000000000e+00 -8.3582067167906033e+01 -2.4648174559725344e+01 -9.8077670370515563e+01 0 0 0
6317 181 4 0.0000000000000000e+00 -7.5344878755908070e+01 -2.4169670369248404e+01 -1.0816283000311137e+02 0 0 0
2551 73 2 0.0000000000000000e+00 -1.4687475068272647e+02 -1.2062696380999025e+01 -1.0684801366565193e+02 0 0 0
2550 73 2 0.0000000000000000e+00 -1.4609794904344704e+02 -1.4065321350332038e+01 -9.7300256329877413e+01 0 0 0
6298 180 4 0.0000000000000000e+00 -1.3189878736207316e+02 -1.1404844699239472e+01 -1.0647806592545633e+02 0 0 0
2549 73 2 0.0000000000000000e+00 -1.3564797123068584e+02 -1.4890066619938077e+01 -9.7493388481891373e+01 0 0 0
2548 73 2 0.0000000000000000e+00 -1.2549515071307721e+02 -1.5726532672825494e+01 -9.8904219371221828e+01 0 0 0
4752 136 4 0.0000000000000000e+00 -9.1173562751630314e+01 -1.8025974528072826e+01 -9.7789463624731852e+01 0 0 0
4751 136 4 0.0000000000000000e+00 -8.7626068722168043e+01 -2.0165689272813122e+01 -1.0753187908854969e+02 0 0 0
6316 181 4 0.0000000000000000e+00 -7.4973627413835217e+01 -1.3726398280327759e+01 -1.0736518413713829e+02 0 0 0
6297 180 3 0.0000000000000000e+00 -1.3846534094671946e+02 -4.0190551107181260e+00 -1.0578295562644696e+02 0 0 0
6315 181 4 0.0000000000000000e+00 -8.3294311393130741e+01 -9.1794890033191834e+00 -1.0481320160671164e+02 0 0 0
3725 107 4 0.0000000000000000e+00 -1.3001010029219069e+02 1.6421674472393811e+01 -1.0856002850276715e+02 0 0 0
3724 107 4 0.0000000000000000e+00 -1.3508344533442533e+02 1.4776698078725206e+01 -1.0010312763254858e+02 0 0 0
2199 63 2 0.0000000000000000e+00 -1.6563941690945123e+02 2.6209515346084203e+01 -9.8428761827601292e+01 0 0 0
2200 63 2 0.0000000000000000e+00 -1.7385893180260805e+02 2.0714483161979548e+01 -1.0001442524981168e+02 0 0 0
1719 50 1 0.0000000000000000e+00 -1.4552746005498815e+02 1.7926958057386351e+01 -9.6149438194745969e+01 0 0 0
3729 107 4 0.0000000000000000e+00 -1.1062488964350672e+02 2.2308659390630417e+01 -9.8594102367720808e+01 0 0 0
3728 107 3 0.0000000000000000e+00 -1.0870765901179040e+02 2.6478193802392049e+01 -1.0756676805106927e+02 0 0 0
5903 169 4 0.0000000000000000e+00 -1.0036464991089699e+02 2.0813559336095139e+01 -1.0174232298845945e+02 0 0 0
5531 159 4 0.0000000000000000e+00 -9.2747881097865658e+01 1.7777205605799878e+01 -1.0690498639069362e+02 0 0 0
575 17 2 0.0000000000000000e+00 -9.0831039200751391e+01 2.8572190685563896e+01 -1.0137738227266617e+02 0 0 0
1368 40 2 0.0000000000000000e+00 -7.1697602925008653e+01 -1.0032697523137243e+02 -9.2232343006685824e+01 0 0 0
1380 40 2 0.0000000000000000e+00 -8.2140830395300355e+01 -7.8994709778857725e+01 -8.5895928858885327e+01 0 0 0
4195 120 4 0.0000000000000000e+00 -6.9326739551561175e+01 -9.0723330886264804e+01 -8.5712342667237223e+01 0 0 0
6500 186 3 0.0000000000000000e+00 -8.7694660820784208e+01 -6.8809806151365493e+01 -9.0811866470504896e+01 0 0 0
1379 40 2 0.0000000000000000e+00 -7.5836266149128974e+01 -7.7768428075286309e+01 -9.3916210095008680e+01 0 0 0
1381 40 2 0.0000000000000000e+00 -7.8688355821985368e+01 -6.9137587456017386e+01 -8.3625004077983064e+01 0 0 0
2216 64 1 0.0000000000000000e+00 -8.1154489028804292e+01 -6.0705104394958020e+01 -9.5227970178557300e+01 0 0 0
2215 64 2 0.0000000000000000e+00 -7.1902969998705515e+01 -5.9868783785462206e+01 -9.2982601402981174e+01 0 0 0
2523 73 2 0.0000000000000000e+00 -1.3517973650559114e+02 -4.4132113714249641e+01 -9.0801486881676823e+01 0 0 0
5548 159 3 0.0000000000000000e+00 -8.0676062722941353e+01 -4.5934605978747307e+01 -8.8885984720523638e+01 0 0 0
6511 187 4 0.0000000000000000e+00 -1.2177189553665046e+02 -2.7468470120309625e+01 -9.2340388419419099e+01 0 0 0
2547 73 2 0.0000000000000000e+00 -1.2657528678172889e+02 -1.9266825066742545e+01 -8.9359987584510264e+01 0 0 0
4754 136 4 0.0000000000000000e+00 -1.0333387339812862e+02 -1.2143667997363186e+01 -8.5724009784626162e+01 0 0 0
4753 136 4 0.0000000000000000e+00 -9.4524976456096169e+01 -1.3879881113925961e+01 -8.9459857770105472e+01 0 0 0
5887 169 4 0.0000000000000000e+00 -8.3634100592220904e+01 -1.5275062632820537e+01 -8.3860202969754042e+01 0 0 0
6518 187 4 0.0000000000000000e+00 -7.5358134088882579e+01 -2.0419864966200944e+01 -9.3794471290832590e+01 0 0 0
3732 107 4 0.0000000000000000e+00 -9.7397541995272277e+01 2.5824151550533164e-01 -8.7797252923406518e+01 0 0 0
5886 169 4 0.0000000000000000e+00 -8.4241911282475058e+01 -5.5095342386337363e+00 -8.5085851392276751e+01 0 0 0
5885 169 4 0.0000000000000000e+00 -8.8479492417644849e+01 1.6198858369895794e+00 -9.0981758246008354e+01 0 0 0
6486 186 3 0.0000000000000000e+00 -1.5204018411730647e+02 1.0641155651794184e+01 -9.0641222630646396e+01 0 0 0
6485 186 4 0.0000000000000000e+00 -1.5972188775997412e+02 7.0777200930123199e+00 -8.4692216141447162e+01 0 0 0
3723 107 4 0.0000000000000000e+00 -1.3783246350564866e+02 1.0750082618278624e+01 -9.1156842280742808e+01 0 0 0
3722 107 4 0.0000000000000000e+00 -1.3498989435081356e+02 6.8489555940326170e+00 -8.2803607398951527e+01 0 0 0
2042 59 2 0.0000000000000000e+00 -1.2666081663939813e+02 1.3246588119344777e+01 -9.1624044443283069e+01 0 0 0
2041 59 1 0.0000000000000000e+00 -1.2071503701427348e+02 1.0927146287055264e+01 -8.3818159173906736e+01 0 0 0
3730 107 4 0.0000000000000000e+00 -1.0547560519492266e+02 1.5872301554499508e+01 -9.3461871434015919e+01 0 0 0
3731 107 4 0.0000000000000000e+00 -1.0505231157791776e+02 5.8887493994951683e+00 -9.2169541246707411e+01 0 0 0
2923 84 1 0.0000000000000000e+00 -1.0116558990592569e+02 1.4313149133856996e+01 -8.5026206773883743e+01 0 0 0
5884 169 3 0.0000000000000000e+00 -9.5129445769521993e+01 8.2691432338881068e+00 -9.2900008739128282e+01 0 0 0
6481 186 4 0.0000000000000000e+00 -1.7933136086964811e+02 2.9626352922813094e+01 -8.4370753438764950e+01 0 0 0
2201 63 2 0.0000000000000000e+00 -1.7779080216894417e+02 2.9465221078706726e+01 -9.5718850320367750e+01 0 0 0
1718 50 2 0.0000000000000000e+00 -1.5494848081877575e+02 2.0114093324629213e+01 -9.5491668848437897e+01 0 0 0
1717 50 2 0.0000000000000000e+00 -1.6166582270892849e+02 2.4053836569624732e+01 -8.8993823920183416e+01 0 0 0
1720 50 2 0.0000000000000000e+00 -1.3729283771887114e+02 2.0095733002556685e+01 -9.0430459685338704e+01 0 0 0
2043 59 2 0.0000000000000000e+00 -1.2638117413248753e+02 2.2788152407816728e+01 -9.3421367004744752e+01 0 0 0
2044 59 2 0.0000000000000000e+00 -1.1890005844572582e+02 2.8904964373392879e+01 -9.0885538415681296e+01 0 0 0
2040 59 2 0.0000000000000000e+00 -1.1515962365890853e+02 1.9246251694809782e+01 -8.2677953330420024e+01 0 0 0
5902 169 4 0.0000000000000000e+00 -9.9418742894415374e+01 2.6246843064590934e+01 -9.3595610297633655e+01 0 0 0
5883 169 4 0.0000000000000000e+00 -9.2062334607306596e+01 1.7290209052387564e+01 -9.5547792634165774e+01 0 0 0
5882 169 4 0.0000000000000000e+00 -8.4448184356777887e+01 2.1664110931947739e+01 -9.0502929833477722e+01 0 0 0
5901 169 4 0.0000000000000000e+00 -9.3075502872380866e+01 2.6835083148972132e+01 -8.5163351165106619e+01 0 0 0
5881 169 4 0.0000000000000000e+00 -7.4682773789921015e+01 2.3958281408155067e+01 -9.1696401516858131e+01 0 0 0
1399 40 2 0.0000000000000000e+00 -8.7620508609801306e+01 -9.6411862040910819e+01 -7.3253693115070661e+01 0 0 0
1398 40 2 0.0000000000000000e+00 -8.6509787724751462e+01 -8.6657524053262065e+01 -7.0642845015042525e+01 0 0 0
4194 120 4 0.0000000000000000e+00 -7.4864133159006769e+01 -8.5515976805863488e+01 -7.9053905533146562e+01 0 0 0
6499 186 4 0.0000000000000000e+00 -8.8231717203569815e+01 -6.7915172342372671e+01 -8.1133076324742689e+01 0 0 0
4193 120 4 0.0000000000000000e+00 -7.2222578675582156e+01 -7.5200902407893452e+01 -7.8674079908293251e+01 0 0 0
6496 186 4 0.0000000000000000e+00 -1.1104360718276952e+02 -5.1968182883969511e+01 -7.6526141840268949e+01 0 0 0
6497 186 4 0.0000000000000000e+00 -1.0263102034814956e+02 -5.5646064617559539e+01 -7.9965572741364468e+01 0 0 0
6498 186 4 0.0000000000000000e+00 -9.3683615043273491e+01 -5.9693543662839097e+01 -8.0736614729983629e+01 0 0 0
1382 40 2 0.0000000000000000e+00 -7.9014441529415350e+01 -5.8863663455700802e+01 -8.2540217656254654e+01 0 0 0
2525 73 2 0.0000000000000000e+00 -1.4039887583326995e+02 -3.8822808490032138e+01 -7.3140620718433468e+01 0 0 0
2524 73 1 0.0000000000000000e+00 -1.3519448017912700e+02 -4.0193992875926192e+01 -8.1533893974755628e+01 0 0 0
6495 186 4 0.0000000000000000e+00 -1.1307909900888382e+02 -4.2963289782589591e+01 -7.9535639947548134e+01 0 0 0
6494 186 4 0.0000000000000000e+00 -1.2119372777796946e+02 -3.7452273676874100e+01 -8.0544442140990427e+01 0 0 0
2543 73 2 0.0000000000000000e+00 -1.1778299008960698e+02 -4.0574526523161119e+01 -7.0877269057950798e+01 0 0 0
1386 40 2 0.0000000000000000e+00 -1.0059144538482404e+02 -4.4640676492025484e+01 -7.6160219744445712e+01 0 0 0
1385 40 2 0.0000000000000000e+00 -9.2846867989497284e+01 -3.8542155054538576e+01 -7.4813389647729252e+01 0 0 0
1384 40 2 0.0000000000000000e+00 -8.5396853102215061e+01 -4.3879850745260690e+01 -7.1942471930793133e+01 0 0 0
5549 159 4 0.0000000000000000e+00 -7.3528874634514196e+01 -4.6518901339277278e+01 -8.2167203086948504e+01 0 0 0
1383 40 1 0.0000000000000000e+00 -8.2470999933600069e+01 -5.0212687526576048e+01 -7.8733474346019051e+01 0 0 0
6492 186 4 0.0000000000000000e+00 -1.3847957070166891e+02 -3.0163422081892961e+01 -7.6807832806815028e+01 0 0 0
6493 186 3 0.0000000000000000e+00 -1.2952761992987053e+02 -3.0708188337484742e+01 -8.0593208302472675e+01 0 0 0
2545 73 1 0.0000000000000000e+00 -1.2986632670679504e+02 -2.4842337671041228e+01 -7.3119731787891311e+01 0 0 0
2544 73 2 0.0000000000000000e+00 -1.2346175552203722e+02 -3.2528573026331387e+01 -6.9334539545542484e+01 0 0 0
1387 40 2 0.0000000000000000e+00 -1.0677947916558263e+02 -3.6866748488491432e+01 -7.6822048989754819e+01 0 0 0
1388 40 2 0.0000000000000000e+00 -1.0438021924977078e+02 -2.7558193209421326e+01 -7.6949750044744576e+01 0 0 0
1389 40 2 0.0000000000000000e+00 -9.6569644002366118e+01 -2.6890417372101297e+01 -7.0421759912670353e+01 0 0 0
2906 84 2 0.0000000000000000e+00 -7.1621513990723599e+01 -2.5476402807280753e+01 -7.7854669158744201e+01 0 0 0
6490 186 4 0.0000000000000000e+00 -1.4106511751985551e+02 -1.5901689838476889e+01 -7.9416279633011442e+01 0 0 0
6491 186 4 0.0000000000000000e+00 -1.4460109421825530e+02 -2.2605700382016245e+01 -7.4286578125720780e+01 0 0 0
2546 73 2 0.0000000000000000e+00 -1.3302070879661520e+02 -2.1657198533825035e+01 -8.1868418899352591e+01 0 0 0
4755 136 4 0.0000000000000000e+00 -1.0674425221017135e+02 -1.4746896030954948e+01 -7.6496663417930790e+01 0 0 0
3734 107 4 0.0000000000000000e+00 -8.7145938780387638e+01 -1.1167827664924220e+01 -7.4873527540004929e+01 0 0 0
3735 107 3 0.0000000000000000e+00 -9.4220006041717483e+01 -1.6085638177846057e+01 -7.0424989551403655e+01 0 0 0
5888 169 4 0.0000000000000000e+00 -8.2171883005917039e+01 -2.1195664464290033e+01 -7.5679643180282994e+01 0 0 0
6489 186 4 0.0000000000000000e+00 -1.4503775683164795e+02 -6.2887275281610657e+00 -7.9835230972831638e+01 0 0 0
6488 186 4 0.0000000000000000e+00 -1.4896706885033723e+02 3.2135791861751448e+00 -8.0104062647195391e+01 0 0 0
2926 84 2 0.0000000000000000e+00 -1.1804183490314627e+02 -8.2838743676876569e-01 -7.3041817596994264e+01 0 0 0
3733 107 4 0.0000000000000000e+00 -9.2626338014181528e+01 -4.1470835491699098e+00 -8.0147462217392473e+01 0 0 0
5896 169 4 0.0000000000000000e+00 -7.1782520773516254e+01 1.0750144568161941e+00 -8.1997095042901236e+01 0 0 0
6483 186 4 0.0000000000000000e+00 -1.7622643922834618e+02 1.1863185357844552e+01 -7.9522518029658215e+01 0 0 0
6484 186 4 0.0000000000000000e+00 -1.6735570744890316e+02 7.3899617587260442e+00 -7.9462395509928257e+01 0 0 0
6487 186 4 0.0000000000000000e+00 -1.4942070155795113e+02 1.3034382523424290e+01 -8.1146468320603745e+01 0 0 0
3721 107 3 0.0000000000000000e+00 -1.2840841034169631e+02 8.2849505569903243e+00 -7.5873420703828316e+01 0 0 0
2925 84 2 0.0000000000000000e+00 -1.1239391161065004e+02 4.2307163511211003e+00 -7.8982467180656300e+01 0 0 0
3720 107 4 0.0000000000000000e+00 -1.1951128013352528e+02 9.3406052974797653e+00 -7.1525117939831389e+01 0 0 0
2924 84 2 0.0000000000000000e+00 -1.0298635249931650e+02 4.8975365915019013e+00 -8.2082617848746224e+01 0 0 0
2922 84 2 0.0000000000000000e+00 -1.0192099599217077e+02 1.3871488641334304e+01 -7.4483254021442391e+01 0 0 0
5898 169 3 0.0000000000000000e+00 -8.4609169177093477e+01 8.0258487125863667e+00 -7.5702895365085368e+01 0 0 0
2914 84 2 0.0000000000000000e+00 -7.0350872551565374e+01 1.2420582905717472e+01 -7.5712882806109675e+01 0 0 0
5897 169 4 0.0000000000000000e+00 -7.6933344514244212e+01 9.3634112013859880e+00 -8.1838045927544400e+01 0 0 0
6482 186 4 0.0000000000000000e+00 -1.8068156871069797e+02 1.9880708895782437e+01 -8.2576103947161016e+01 0 0 0
6283 180 3 0.0000000000000000e+00 -1.5850860365406643e+02 2.4928164831082597e+01 -7.4703233306828196e+01 0 0 0
1733 50 1 0.0000000000000000e+00 -1.4934956532518856e+02 2.8052481335205982e+01 -6.9489687608478320e+01 0 0 0