LAMMPS data file via write_data, version 5 Jun 2019, timestep = 390000000

7000 atoms
4 atom types
7285 bonds
3 bond types
6600 angles
2 angle types

-5.0000000000000000e+02 5.0000000000000000e+02 xlo xhi
-5.0000000000000000e+02 5.0000000000000000e+02 ylo yhi
-5.0000000000000000e+02 5.0000000000000000e+02 zlo zhi

Masses

1 1000
2 1000
3 1000
4 1000

Pair Coeffs # lj/cut

1 0.178 10
2 0.178 10
3 0.178 10
4 0.178 10

Angle Coeffs # cosine

1 2
2 2

Atoms # full

5912 169 3 0.0000000000000000e+00 -1.0387586404546444e+02 3.6789222409562022e+01 -2.0343654454344320e+02 0 0 0
2234 64 2 0.0000000000000000e+00 -7.5400622456795531e+01 2.5971183701537971e+01 -1.9899908985588115e+02 0 0 0
5911 169 4 0.0000000000000000e+00 -1.0672984202245856e+02 3.5064102129065631e+01 -1.9385474767903324e+02 0 0 0
2236 64 2 0.0000000000000000e+00 -8.8770614138771776e+01 3.3496513501174697e+01 -1.8624457062617358e+02 0 0 0
2235 64 2 0.0000000000000000e+00 -8.2565873148205498e+01 3.0881678675310145e+01 -1.9394684744456140e+02 0 0 0
1627 47 2 0.0000000000000000e+00 -7.3443978995174419e+01 7.5869681863002363e+00 -1.6937689105386573e+02 0 0 0
2237 64 1 0.0000000000000000e+00 -8.6922908414634534e+01 3.2072231816681203e+01 -1.7656932014369434e+02 0 0 0
4741 136 4 0.0000000000000000e+00 -7.2533753518062909e+01 3.1861814697944240e+01 -1.7285773279796481e+02 0 0 0
4742 136 4 0.0000000000000000e+00 -8.0959013469956901e+01 2.8268198923491433e+01 -1.6866330467651392e+02 0 0 0
2093 60 2 0.0000000000000000e+00 -9.1468917971988859e+01 -2.3013969024710718e+01 -1.5534116052145652e+02 0 0 0
2092 60 2 0.0000000000000000e+00 -8.6194135083886238e+01 -1.7822181956727110e+01 -1.6290635637846657e+02 0 0 0
2091 60 2 0.0000000000000000e+00 -8.1782586076942181e+01 -9.0937114947735829e+00 -1.5894578651483749e+02 0 0 0
5542 159 4 0.0000000000000000e+00 -9.6135428963539582e+01 2.3655142409824030e+00 -1.6117121503060662e+02 0 0 0
5543 159 4 0.0000000000000000e+00 -9.2437346551666352e+01 -3.3363125097439039e+00 -1.5487726863588310e+02 0 0 0
1628 47 1 0.0000000000000000e+00 -8.1133558223270640e+01 5.7471628033754403e+00 -1.6404036370520254e+02 0 0 0
4745 136 4 0.0000000000000000e+00 -1.0254220450495767e+02 1.8609281682738846e+01 -1.5942150370534196e+02 0 0 0
4744 136 4 0.0000000000000000e+00 -9.6163862025119101e+01 2.1686885213529898e+01 -1.6670639583704394e+02 0 0 0
5541 159 3 0.0000000000000000e+00 -8.9970056422682035e+01 9.7709836189648538e+00 -1.5809768510192023e+02 0 0 0
1629 47 2 0.0000000000000000e+00 -7.9283530346975837e+01 1.3543877891621092e+01 -1.5849661503377359e+02 0 0 0
1630 47 2 0.0000000000000000e+00 -7.6439365059894470e+01 2.2683205302069251e+01 -1.6146506415530519e+02 0 0 0
4743 136 3 0.0000000000000000e+00 -9.0453181206636714e+01 2.9587553067348669e+01 -1.6638081120158247e+02 0 0 0
1372 40 2 0.0000000000000000e+00 -8.5149878595989847e+01 -3.4525177541136586e+01 -1.5212467154069756e+02 0 0 0
1371 40 2 0.0000000000000000e+00 -7.7836334616178505e+01 -4.1819988850175129e+01 -1.5007232078687997e+02 0 0 0
2094 60 2 0.0000000000000000e+00 -9.9017336689705459e+01 -2.7702885299235763e+01 -1.5046178258977420e+02 0 0 0
2095 60 2 0.0000000000000000e+00 -1.0713999493378570e+02 -2.7162578068382107e+01 -1.4479979303283835e+02 0 0 0
1373 40 2 0.0000000000000000e+00 -7.8654989860645188e+01 -2.6695002348012988e+01 -1.5309626024513162e+02 0 0 0
2215 64 2 0.0000000000000000e+00 -7.4558876106261735e+01 -2.2165750097545448e+01 -1.4459728071554585e+02 0 0 0
2216 64 1 0.0000000000000000e+00 -7.1026342889279775e+01 -3.0833155855811238e+01 -1.4735646009790884e+02 0 0 0
2553 73 2 0.0000000000000000e+00 -1.5576690257311827e+02 -7.8451229423710069e+00 -1.5005731550452063e+02 0 0 0
2552 73 1 0.0000000000000000e+00 -1.4821618831678421e+02 -8.4206343001076451e+00 -1.4365662457266546e+02 0 0 0
6300 180 4 0.0000000000000000e+00 -1.2895628522422243e+02 -7.4220620113995226e+00 -1.4580021277101767e+02 0 0 0
2090 60 1 0.0000000000000000e+00 -7.3941494313261984e+01 -4.6972180887877943e+00 -1.5437683420841992e+02 0 0 0
2554 73 2 0.0000000000000000e+00 -1.5954890340370764e+02 1.3798186974424189e+00 -1.5199184188907020e+02 0 0 0
6297 180 3 0.0000000000000000e+00 -1.4661313600835669e+02 2.4484991165728829e+00 -1.4664023409840684e+02 0 0 0
6298 180 4 0.0000000000000000e+00 -1.4091539727061877e+02 2.6414831789399940e+00 -1.5416075319587782e+02 0 0 0
6299 180 4 0.0000000000000000e+00 -1.3188515304615711e+02 -2.3858253662943931e+00 -1.5364243717743460e+02 0 0 0
6512 187 4 0.0000000000000000e+00 -1.2810844472458146e+02 3.8519861972339573e+00 -1.4297605907368157e+02 0 0 0
6511 187 4 0.0000000000000000e+00 -1.3295971619663311e+02 9.1654211921168667e+00 -1.4977812053912243e+02 0 0 0
5544 159 4 0.0000000000000000e+00 -8.8394872776357388e+01 -2.0642903728119961e+00 -1.4589553931429094e+02 0 0 0
2089 60 2 0.0000000000000000e+00 -7.3687884390960377e+01 2.2426125844563747e+00 -1.4692807810088584e+02 0 0 0
2555 73 2 0.0000000000000000e+00 -1.5638434920672898e+02 1.0515673135752731e+01 -1.4996970881118270e+02 0 0 0
4746 136 4 0.0000000000000000e+00 -1.0649176561015575e+02 1.4338351793941200e+01 -1.5095225861083944e+02 0 0 0
5540 159 4 0.0000000000000000e+00 -8.7275925981518924e+01 1.7789919682483180e+01 -1.5310622693519920e+02 0 0 0
5539 159 4 0.0000000000000000e+00 -8.9657281454694598e+01 2.3425004687983449e+01 -1.4451501559994117e+02 0 0 0
2076 60 1 0.0000000000000000e+00 -1.0113729209105009e+02 3.2885579519238071e+01 -1.4103390312971521e+02 0 0 0
2075 60 2 0.0000000000000000e+00 -9.7498442444748591e+01 3.2669246462462574e+01 -1.5021172904345852e+02 0 0 0
5538 159 4 0.0000000000000000e+00 -8.2048842344557144e+01 2.8761549662060041e+01 -1.4679381765124123e+02 0 0 0
4198 120 4 0.0000000000000000e+00 -8.1667067355875815e+01 -6.3448770954135099e+01 -1.3102538358388500e+02 0 0 0
4196 120 4 0.0000000000000000e+00 -7.1784007568378399e+01 -5.8558152822740901e+01 -1.2777732000947343e+02 0 0 0
4197 120 3 0.0000000000000000e+00 -7.8416711068592733e+01 -5.5882759549689055e+01 -1.3526448920188460e+02 0 0 0
6497 186 4 0.0000000000000000e+00 -8.5671631216270825e+01 -3.7024539686989250e+01 -1.2745417925468050e+02 0 0 0
1370 40 2 0.0000000000000000e+00 -7.7282925616769774e+01 -4.3395105977680970e+01 -1.4040340296738347e+02 0 0 0
1369 40 1 0.0000000000000000e+00 -7.8697563731082198e+01 -4.5345511991485616e+01 -1.3063800092934636e+02 0 0 0
2096 60 2 0.0000000000000000e+00 -1.1421993351622793e+02 -2.5240518252749698e+01 -1.3821739465735749e+02 0 0 0
2097 60 1 0.0000000000000000e+00 -1.2048910083298290e+02 -2.0834695854160053e+01 -1.3092819746698035e+02 0 0 0
2551 73 2 0.0000000000000000e+00 -1.4098007816166574e+02 -5.5840601737147217e+00 -1.3792164782393968e+02 0 0 0
2550 73 2 0.0000000000000000e+00 -1.3382618775477337e+02 -5.3034047051621176e+00 -1.3073268399486935e+02 0 0 0
6514 187 3 0.0000000000000000e+00 -1.2218581137425448e+02 -1.0185391127525625e+01 -1.3437519394480017e+02 0 0 0
6515 187 4 0.0000000000000000e+00 -1.1273958454882745e+02 -1.3597751243763662e+01 -1.3360135304937305e+02 0 0 0
5546 159 4 0.0000000000000000e+00 -7.6595108829316729e+01 -9.5825288805647553e+00 -1.3117445906277317e+02 0 0 0
5545 159 4 0.0000000000000000e+00 -8.2430027121641103e+01 -6.5026759008029371e+00 -1.3900533576835619e+02 0 0 0
6296 180 4 0.0000000000000000e+00 -1.5293713259395267e+02 6.6734508708551976e+00 -1.4012080613837986e+02 0 0 0
6513 187 4 0.0000000000000000e+00 -1.2398051907562896e+02 -3.4852145188407291e-01 -1.3472855402253361e+02 0 0 0
2087 60 2 0.0000000000000000e+00 -8.3990220285394145e+01 2.1328236851997566e+00 -1.3188857637848557e+02 0 0 0
2088 60 2 0.0000000000000000e+00 -7.7030573120945007e+01 4.7923439004559327e+00 -1.3815969227254462e+02 0 0 0
6295 180 4 0.0000000000000000e+00 -1.5058600164896478e+02 1.2925067878570355e+01 -1.3269839949479871e+02 0 0 0
4748 136 4 0.0000000000000000e+00 -1.1535666601627818e+02 1.9349944525472164e+01 -1.3455088910862395e+02 0 0 0
4747 136 4 0.0000000000000000e+00 -1.0871417434204493e+02 1.4611662314595675e+01 -1.4077320586776264e+02 0 0 0
6313 181 4 0.0000000000000000e+00 -1.0348480293658787e+02 1.4172533437353662e+01 -1.2993232021312579e+02 0 0 0
6314 181 4 0.0000000000000000e+00 -9.4978566335318774e+01 1.2112418853873145e+01 -1.3319276008138161e+02 0 0 0
6315 181 4 0.0000000000000000e+00 -8.6055435128249769e+01 1.4130499960999627e+01 -1.3613754915516154e+02 0 0 0
6316 181 4 0.0000000000000000e+00 -8.1276721515188811e+01 2.2630654440588302e+01 -1.3754923075631473e+02 0 0 0
6312 181 4 0.0000000000000000e+00 -9.9784019643595713e+01 2.3868032900398823e+01 -1.3143720476449386e+02 0 0 0
2077 60 2 0.0000000000000000e+00 -1.0566491358152476e+02 3.5416538305042245e+01 -1.3240928465476145e+02 0 0 0
6311 181 3 0.0000000000000000e+00 -9.2467616749730837e+01 2.9054206445289307e+01 -1.3520713173632387e+02 0 0 0
6317 181 4 0.0000000000000000e+00 -7.3203762156214708e+01 2.8402454085009403e+01 -1.3680825254558755e+02 0 0 0
1800 52 2 0.0000000000000000e+00 -7.6420698655518294e+01 3.3464365425149438e+01 -1.2802293927619240e+02 0 0 0
3745 107 4 0.0000000000000000e+00 -1.1146170860359307e+02 -6.7846357908775914e+01 -1.2604495736450114e+02 0 0 0
3744 107 4 0.0000000000000000e+00 -1.0665867548208442e+02 -6.7979148875119733e+01 -1.1770594307462339e+02 0 0 0
4200 120 4 0.0000000000000000e+00 -8.4465537404283651e+01 -7.1501908023210959e+01 -1.1456538324256152e+02 0 0 0
4199 120 4 0.0000000000000000e+00 -8.6731776735905768e+01 -6.7644327368281438e+01 -1.2401282423054741e+02 0 0 0
1366 40 2 0.0000000000000000e+00 -9.5030722908111287e+01 -6.5371234775401831e+01 -1.1579517912874421e+02 0 0 0
1367 40 2 0.0000000000000000e+00 -8.9359789331103727e+01 -5.8038807685139801e+01 -1.1951973472877714e+02 0 0 0
1368 40 2 0.0000000000000000e+00 -8.3050281556371374e+01 -5.1159677213680190e+01 -1.2343764364457842e+02 0 0 0
2100 60 2 0.0000000000000000e+00 -1.3521709613776733e+02 -4.0545883011593226e+01 -1.1641920798252804e+02 0 0 0
6494 186 4 0.0000000000000000e+00 -1.1428181161934066e+02 -3.3907888990871669e+01 -1.2354627040804620e+02 0 0 0
6495 186 4 0.0000000000000000e+00 -1.0471579935443114e+02 -3.1799635845188604e+01 -1.2574507654838453e+02 0 0 0
6496 186 4 0.0000000000000000e+00 -9.4826526453971354e+01 -3.4903957596959835e+01 -1.2577070845727009e+02 0 0 0
6498 186 4 0.0000000000000000e+00 -7.6190378456769309e+01 -3.6140328250754472e+01 -1.2457740162976168e+02 0 0 0
2099 60 2 0.0000000000000000e+00 -1.3194490462635969e+02 -3.1101999701481162e+01 -1.1961834631994580e+02 0 0 0
2098 60 2 0.0000000000000000e+00 -1.2441337533019927e+02 -2.6486212520082358e+01 -1.2323546208385497e+02 0 0 0
6493 186 3 0.0000000000000000e+00 -1.2062322657660945e+02 -3.1540342731962618e+01 -1.1552388155309634e+02 0 0 0
2523 73 2 0.0000000000000000e+00 -1.1561164513259021e+02 -2.0942847271571580e+01 -1.1981793155537844e+02 0 0 0
2524 73 1 0.0000000000000000e+00 -1.1000869560717952e+02 -2.7122816465271811e+01 -1.1453749767027655e+02 0 0 0
6517 187 4 0.0000000000000000e+00 -1.0323847868966156e+02 -1.8785626294464873e+01 -1.1649929691687174e+02 0 0 0
2906 84 2 0.0000000000000000e+00 -8.6297279660287984e+01 -2.9692207459905841e+01 -1.1686153580814609e+02 0 0 0
2522 73 2 0.0000000000000000e+00 -1.1634078890305366e+02 -1.1673818800010723e+01 -1.2161297453870921e+02 0 0 0
6516 187 4 0.0000000000000000e+00 -1.0810315683161056e+02 -1.6498524853634144e+01 -1.2506706996072192e+02 0 0 0
5547 159 4 0.0000000000000000e+00 -7.4335954119225519e+01 -1.6865712430010941e+01 -1.2498313654776689e+02 0 0 0
2549 73 2 0.0000000000000000e+00 -1.2892110672006180e+02 -1.8719585578818285e+00 -1.2258413830147934e+02 0 0 0
2548 73 2 0.0000000000000000e+00 -1.3491924233846683e+02 3.4535979558597307e+00 -1.1657307476594741e+02 0 0 0
2521 73 2 0.0000000000000000e+00 -1.1408341088918998e+02 -1.2372820387993970e+00 -1.2249314668072836e+02 0 0 0
2085 60 2 0.0000000000000000e+00 -9.9000435374745649e+01 8.3006628591927001e+00 -1.2351400032755578e+02 0 0 0
2086 60 2 0.0000000000000000e+00 -9.2268478903647193e+01 2.4173248248834662e+00 -1.2646341570609286e+02 0 0 0
6294 180 4 0.0000000000000000e+00 -1.5438788984740495e+02 1.6102649512328934e+01 -1.2415358405282907e+02 0 0 0
4749 136 4 0.0000000000000000e+00 -1.1872384769676077e+02 1.9316577936319586e+01 -1.2535918557584738e+02 0 0 0
4750 136 3 0.0000000000000000e+00 -1.2055208052187953e+02 1.1729096052100470e+01 -1.1941092863622191e+02 0 0 0
2083 60 1 0.0000000000000000e+00 -1.1322122811343310e+02 1.9620481357455343e+01 -1.1643425424502588e+02 0 0 0
2084 60 2 0.0000000000000000e+00 -1.0660942938368748e+02 1.2975575910168109e+01 -1.1921412930886957e+02 0 0 0
6336 182 4 0.0000000000000000e+00 -1.0107443923459971e+02 2.0918468983512120e+01 -1.2161320687516310e+02 0 0 0
6293 180 4 0.0000000000000000e+00 -1.4914010832264935e+02 2.4118096028715748e+01 -1.2067168635323260e+02 0 0 0
2082 60 2 0.0000000000000000e+00 -1.1875757518309278e+02 2.7937633891561113e+01 -1.1423561345501238e+02 0 0 0
6337 182 4 0.0000000000000000e+00 -1.0159488739445963e+02 2.9019136039025508e+01 -1.1552180814004365e+02 0 0 0
1798 52 2 0.0000000000000000e+00 -8.9348259838474036e+01 3.1424860531479105e+01 -1.1554036453295403e+02 0 0 0
1799 52 2 0.0000000000000000e+00 -8.3313705687005310e+01 2.9336879846568355e+01 -1.2287434056162283e+02 0 0 0
3743 107 4 0.0000000000000000e+00 -1.0620730431614864e+02 -6.5531662465989342e+01 -1.0779331786290315e+02 0 0 0
2530 73 2 0.0000000000000000e+00 -9.7060373839957919e+01 -7.1466671783731428e+01 -1.0395868843360371e+02 0 0 0
2529 73 2 0.0000000000000000e+00 -8.9478888815283867e+01 -6.4730856929797639e+01 -1.0676278542009749e+02 0 0 0
2528 73 2 0.0000000000000000e+00 -8.7001713381692937e+01 -5.5497565043956904e+01 -1.0825141911869007e+02 0 0 0
2527 73 2 0.0000000000000000e+00 -8.9885207362062829e+01 -4.6153371431794532e+01 -1.0892454372022154e+02 0 0 0
2525 73 2 0.0000000000000000e+00 -1.0302378450438277e+02 -3.2857058049925492e+01 -1.1142145084084241e+02 0 0 0
2526 73 2 0.0000000000000000e+00 -9.4505261062927062e+01 -3.8212440407504069e+01 -1.0948036972423988e+02 0 0 0
6491 186 4 0.0000000000000000e+00 -1.3101001813769275e+02 -2.2745873647637904e+01 -1.0438330658484186e+02 0 0 0
6492 186 4 0.0000000000000000e+00 -1.2287393146894615e+02 -2.8314703890990291e+01 -1.0628110522914947e+02 0 0 0
6254 179 4 0.0000000000000000e+00 -1.1473384960969581e+02 -2.5596072662298599e+01 -1.0049558917502334e+02 0 0 0
6253 179 4 0.0000000000000000e+00 -1.0555492274943751e+02 -2.8347125474228804e+01 -1.0097698114917728e+02 0 0 0
2907 84 2 0.0000000000000000e+00 -8.6788555221316571e+01 -2.8930014198585493e+01 -1.0687385424209810e+02 0 0 0
1384 40 2 0.0000000000000000e+00 -7.4770397662446925e+01 -2.0888945146102522e+01 -1.0844103048488049e+02 0 0 0
1383 40 1 0.0000000000000000e+00 -7.0730181023169507e+01 -2.9888747493679190e+01 -1.1004299080317126e+02 0 0 0
6490 186 4 0.0000000000000000e+00 -1.3791882875417122e+02 -1.6258103410424123e+01 -1.0013528346307899e+02 0 0 0
2546 73 2 0.0000000000000000e+00 -1.2863421870171621e+02 -6.4009038350915839e+00 -9.9823494421126370e+01 0 0 0
2545 73 1 0.0000000000000000e+00 -1.2293270259279969e+02 -1.4992239602491651e+01 -1.0059437352156240e+02 0 0 0
6519 187 4 0.0000000000000000e+00 -1.0432539542039595e+02 -6.5365882957231003e+00 -1.1037113185697820e+02 0 0 0
6518 187 4 0.0000000000000000e+00 -1.1115476363168366e+02 -1.3829659759837465e+01 -1.1139178845827391e+02 0 0 0
6521 187 3 0.0000000000000000e+00 -8.6264024697919069e+01 -8.7394303286494175e+00 -1.0317311509582701e+02 0 0 0
6520 187 4 0.0000000000000000e+00 -9.5220363440896449e+01 -6.3533988449845262e+00 -1.0644773707533118e+02 0 0 0
1385 40 2 0.0000000000000000e+00 -7.1714713089142464e+01 -1.2891623982317236e+01 -1.0263283789288249e+02 0 0 0
6522 187 4 0.0000000000000000e+00 -7.7329851106954436e+01 -6.4315523340008909e+00 -1.0624483632706706e+02 0 0 0
2547 73 2 0.0000000000000000e+00 -1.3314122003516718e+02 -7.1899050631839256e-01 -1.0718715134880995e+02 0 0 0
4751 136 4 0.0000000000000000e+00 -1.2077357095334200e+02 5.4138708012595371e+00 -1.1202391795694741e+02 0 0 0
4752 136 4 0.0000000000000000e+00 -1.1890728195294935e+02 7.6321749665775807e-01 -1.0343008581134836e+02 0 0 0
3309 95 2 0.0000000000000000e+00 -1.4201238579651644e+02 2.0351150667870773e+01 -1.0579062647418678e+02 0 0 0
3310 95 2 0.0000000000000000e+00 -1.3684141220860798e+02 1.2062898535273868e+01 -1.0648820121318786e+02 0 0 0
3311 95 2 0.0000000000000000e+00 -1.2820869460913968e+02 1.7950407897644126e+01 -1.0301628334970111e+02 0 0 0
3312 95 2 0.0000000000000000e+00 -1.1881670451113241e+02 2.1614721122677690e+01 -1.0301964977876405e+02 0 0 0
6291 180 4 0.0000000000000000e+00 -1.5656967850625156e+02 2.3995015481246948e+01 -1.0492029323558369e+02 0 0 0
6292 180 4 0.0000000000000000e+00 -1.4880508136329149e+02 2.5543772923247552e+01 -1.1081907437946528e+02 0 0 0
3308 95 1 0.0000000000000000e+00 -1.3971583809071842e+02 2.9147861407642818e+01 -1.0243287176119468e+02 0 0 0
3313 95 2 0.0000000000000000e+00 -1.1085039762105129e+02 2.7677522225458262e+01 -1.0164057732391137e+02 0 0 0
3314 95 2 0.0000000000000000e+00 -1.0136851680311796e+02 2.9000651306878225e+01 -1.0045033658848995e+02 0 0 0
2914 84 2 0.0000000000000000e+00 -7.0872449996861079e+01 3.0234702433873313e+01 -1.0308125478717224e+02 0 0 0
5899 169 4 0.0000000000000000e+00 -8.3686243850680682e+01 3.5537495395138365e+01 -1.0122268941480218e+02 0 0 0
2030 58 2 0.0000000000000000e+00 -7.2767817876939745e+01 -1.2630422333457479e+02 -8.7340166626731417e+01 0 0 0
3742 107 3 0.0000000000000000e+00 -1.1186651876839561e+02 -6.4185590277229110e+01 -9.9447743647709373e+01 0 0 0
3741 107 4 0.0000000000000000e+00 -1.1648716652925111e+02 -6.0837999208220424e+01 -9.1691324157840512e+01 0 0 0
2532 73 2 0.0000000000000000e+00 -1.0919570589773892e+02 -7.2774970917819019e+01 -8.8783004297793283e+01 0 0 0
2531 73 1 0.0000000000000000e+00 -1.0424563591236989e+02 -7.1836729943964698e+01 -9.7241614198119677e+01 0 0 0
6245 179 4 0.0000000000000000e+00 -7.1157654100583613e+01 -6.6630432203838140e+01 -8.7026213024239098e+01 0 0 0
6250 179 4 0.0000000000000000e+00 -9.9384027018870071e+01 -5.4166016953990443e+01 -9.5392448957743582e+01 0 0 0
6251 179 4 0.0000000000000000e+00 -1.0585569274290532e+02 -4.7048459127847252e+01 -9.3587758280512972e+01 0 0 0
6249 179 4 0.0000000000000000e+00 -9.0242286827292290e+01 -5.7684632409071980e+01 -9.6576375734151924e+01 0 0 0
2538 73 1 0.0000000000000000e+00 -8.4972865547962840e+01 -5.5141554497331029e+01 -8.5778646927172886e+01 0 0 0
6248 179 3 0.0000000000000000e+00 -8.0853121106764561e+01 -5.7934844660046181e+01 -9.6095758818603414e+01 0 0 0
6247 179 4 0.0000000000000000e+00 -7.2839162890800210e+01 -5.2409791673191229e+01 -9.2842134233449784e+01 0 0 0
6252 179 4 0.0000000000000000e+00 -1.0421234882663749e+02 -3.7579099585970312e+01 -9.7546503011604528e+01 0 0 0
6256 179 4 0.0000000000000000e+00 -1.3211383567852184e+02 -2.4405787043173230e+01 -9.2280846271164464e+01 0 0 0
6255 179 3 0.0000000000000000e+00 -1.2248094153938457e+02 -2.3936514400975305e+01 -9.4603827661454744e+01 0 0 0
2908 84 2 0.0000000000000000e+00 -8.7776716319434186e+01 -2.2681554054054732e+01 -9.8771275482457000e+01 0 0 0
6489 186 4 0.0000000000000000e+00 -1.3700075830994967e+02 -1.2108104148305737e+01 -9.0879818599383839e+01 0 0 0
2544 73 2 0.0000000000000000e+00 -1.1468098366096434e+02 -1.6554262862220799e+01 -9.4703352589023950e+01 0 0 0
2909 84 1 0.0000000000000000e+00 -8.1590532034529744e+01 -1.4908840398155075e+01 -9.5748078973030303e+01 0 0 0
2910 84 2 0.0000000000000000e+00 -7.9499654559840820e+01 -5.5068878258700753e+00 -9.6627274301108585e+01 0 0 0
4760 136 4 0.0000000000000000e+00 -1.3119526554349306e+02 -3.9089023170730099e+00 -8.8939954206939504e+01 0 0 0
4753 136 4 0.0000000000000000e+00 -1.1498438034315534e+02 5.6395550310430520e-01 -9.4010509312701302e+01 0 0 0
4754 136 4 0.0000000000000000e+00 -1.0527316493282781e+02 1.7466966923385094e+00 -9.3186779406618385e+01 0 0 0
2911 84 2 0.0000000000000000e+00 -7.4176080510364400e+01 2.1282002457744351e+00 -9.9444164713401918e+01 0 0 0
5881 169 4 0.0000000000000000e+00 -1.3522348586582515e+02 2.0842587613451826e+01 -9.5098646137826066e+01 0 0 0
5882 169 4 0.0000000000000000e+00 -1.2964100906016409e+02 1.3618067160491229e+01 -9.1748946822946891e+01 0 0 0
5883 169 4 0.0000000000000000e+00 -1.2189597540829624e+02 1.0576732783128440e+01 -8.6132315313367940e+01 0 0 0
6290 180 3 0.0000000000000000e+00 -1.5017083206324440e+02 2.8484541475577842e+01 -9.7912730861833538e+01 0 0 0
6289 180 4 0.0000000000000000e+00 -1.5103828679472167e+02 2.4834309860382682e+01 -8.8607270035666943e+01 0 0 0
3307 95 2 0.0000000000000000e+00 -1.4108111140917939e+02 3.5274810830357495e+01 -9.4542439035466600e+01 0 0 0
3729 107 4 0.0000000000000000e+00 -1.0817824408874218e+02 2.6714349365055053e+01 -8.6107203999113622e+01 0 0 0
3728 107 3 0.0000000000000000e+00 -1.0594946236467702e+02 3.6534573790026229e+01 -8.7572683592486939e+01 0 0 0
3315 95 1 0.0000000000000000e+00 -9.7713766497924027e+01 3.6793477771314848e+01 -9.5687223406339911e+01 0 0 0
5897 169 4 0.0000000000000000e+00 -8.3200670868021390e+01 2.4008388171104361e+01 -8.9537400361310247e+01 0 0 0
5898 169 3 0.0000000000000000e+00 -7.9028577038876833e+01 3.2892682540774103e+01 -9.3106740321266571e+01 0 0 0
2916 84 1 0.0000000000000000e+00 -7.0191779599798011e+01 3.0464117772946199e+01 -8.6843409541550201e+01 0 0 0
2029 58 2 0.0000000000000000e+00 -7.2806122304168454e+01 -1.1686947730252125e+02 -8.3984218240480189e+01 0 0 0
2028 58 2 0.0000000000000000e+00 -7.3029841382850066e+01 -1.0928916957329496e+02 -7.7629498135212515e+01 0 0 0
2533 73 2 0.0000000000000000e+00 -1.1155486772261183e+02 -7.6563704291250929e+01 -7.9023647904994647e+01 0 0 0
2534 73 2 0.0000000000000000e+00 -1.0780514456797331e+02 -7.0970077966923029e+01 -7.2131669147806846e+01 0 0 0
3740 107 4 0.0000000000000000e+00 -1.1024160256317755e+02 -5.9037915584194145e+01 -8.3991884754172816e+01 0 0 0
3739 107 4 0.0000000000000000e+00 -1.0479676688261537e+02 -5.3930064167401170e+01 -7.7257455567530471e+01 0 0 0
2537 73 2 0.0000000000000000e+00 -8.9174599597486505e+01 -5.9028394182108194e+01 -7.7838621807695120e+01 0 0 0
2539 73 2 0.0000000000000000e+00 -8.9416108781827987e+01 -4.5986319630073822e+01 -8.5449803076362670e+01 0 0 0
4170 120 4 0.0000000000000000e+00 -7.6400741557326100e+01 -4.6581492652984089e+01 -7.2934206705768460e+01 0 0 0
4171 120 4 0.0000000000000000e+00 -7.5882999371812360e+01 -5.5502289426016944e+01 -7.7648961722889524e+01 0 0 0
3738 107 4 0.0000000000000000e+00 -1.0257582127191478e+02 -4.4840325901580620e+01 -7.7747731173112527e+01 0 0 0
3737 107 4 0.0000000000000000e+00 -1.0107755118411508e+02 -3.5658916444920422e+01 -7.5613741696133644e+01 0 0 0
2540 73 2 0.0000000000000000e+00 -9.3330367280252844e+01 -3.7871494894652159e+01 -8.0634553964643004e+01 0 0 0
5530 158 4 0.0000000000000000e+00 -1.9906626923729070e+02 -2.2959826339847332e+01 -7.3093629446280275e+01 0 0 0
6257 179 4 0.0000000000000000e+00 -1.3063159078002312e+02 -2.3282556358470025e+01 -8.3059768730192118e+01 0 0 0
6258 179 4 0.0000000000000000e+00 -1.3517802184955198e+02 -1.9381337066242835e+01 -7.4628683384325569e+01 0 0 0
2541 73 2 0.0000000000000000e+00 -9.8129249560279959e+01 -3.0047232312531715e+01 -8.4351116856052911e+01 0 0 0
2542 73 2 0.0000000000000000e+00 -1.0117337104222946e+02 -2.0364961752584616e+01 -8.5435125676398300e+01 0 0 0
2543 73 2 0.0000000000000000e+00 -1.1130865618100970e+02 -1.7911991411189526e+01 -8.5221493378431845e+01 0 0 0
3736 107 4 0.0000000000000000e+00 -9.4007504990782323e+01 -2.8743485131278771e+01 -7.4717835501143824e+01 0 0 0
3735 107 3 0.0000000000000000e+00 -8.8152139450612211e+01 -2.1074109361143361e+01 -7.6627885894922727e+01 0 0 0
1390 40 1 0.0000000000000000e+00 -7.7010536743858182e+01 -2.1660427294699097e+01 -7.4820535592648810e+01 0 0 0
2205 63 2 0.0000000000000000e+00 -1.7182802423078741e+02 -4.9230110754671292e+00 -8.2782644655342793e+01 0 0 0
2204 63 2 0.0000000000000000e+00 -1.7428538706769885e+02 -7.0985627008112466e+00 -7.4261649938531050e+01 0 0 0
6488 186 4 0.0000000000000000e+00 -1.4176386999354162e+02 -6.7829275319611062e+00 -8.3132014601905624e+01 0 0 0
4759 136 4 0.0000000000000000e+00 -1.2806656690150277e+02 -1.1266129205293153e+01 -8.4338912307480214e+01 0 0 0
2926 84 2 0.0000000000000000e+00 -1.2854051801733556e+02 -7.3359256922599991e+00 -7.6007181494956143e+01 0 0 0
4758 136 4 0.0000000000000000e+00 -1.1915845164923921e+02 -1.0234344136659486e+01 -7.9689346409605236e+01 0 0 0
3734 107 4 0.0000000000000000e+00 -9.1548736297118651e+01 -1.1495735995184548e+01 -7.7684040722195931e+01 0 0 0
6485 186 4 0.0000000000000000e+00 -1.5850893599135074e+02 1.9087894266781307e+00 -7.4831130617894729e+01 0 0 0
6486 186 3 0.0000000000000000e+00 -1.5145067317129164e+02 8.8358221370292398e+00 -7.5806001008727620e+01 0 0 0
6487 186 4 0.0000000000000000e+00 -1.4488241416153571e+02 2.8333868868960530e+00 -7.9963865256908775e+01 0 0 0
2925 84 2 0.0000000000000000e+00 -1.3201472423702748e+02 1.3838069901511167e+00 -7.7233002492708451e+01 0 0 0
4757 136 3 0.0000000000000000e+00 -1.1389700503900158e+02 -2.3794459329484154e+00 -7.5979258947610333e+01 0 0 0
4755 136 4 0.0000000000000000e+00 -1.0214643429520930e+02 -3.1522531785259913e+00 -8.5035468048540338e+01 0 0 0
4756 136 4 0.0000000000000000e+00 -1.0437960252194571e+02 -3.1413336715217248e+00 -7.5441573147065398e+01 0 0 0
3732 107 4 0.0000000000000000e+00 -9.6321087234034394e+01 6.0150900502478590e+00 -8.0186844000795716e+01 0 0 0
3733 107 4 0.0000000000000000e+00 -9.0088140537951602e+01 -1.2963839133415860e+00 -7.8271332651549656e+01 0 0 0
5894 169 4 0.0000000000000000e+00 -8.1741317430400031e+01 2.4844842406715828e-01 -7.4028348256806680e+01 0 0 0
1719 50 1 0.0000000000000000e+00 -1.5085150124207451e+02 1.9791171915300239e+01 -7.5968921167597330e+01 0 0 0
2924 84 2 0.0000000000000000e+00 -1.3211464399486232e+02 1.0720810446985393e+01 -8.0235029189142125e+01 0 0 0
5884 169 3 0.0000000000000000e+00 -1.1486185162492535e+02 1.1481683651048193e+01 -7.8543140302577214e+01 0 0 0
2923 84 1 0.0000000000000000e+00 -1.2489758349351357e+02 1.7029815772551395e+01 -7.7980778433148330e+01 0 0 0
3730 107 4 0.0000000000000000e+00 -1.1108213939502069e+02 1.7396515430876534e+01 -8.5266421680910426e+01 0 0 0
3731 107 4 0.0000000000000000e+00 -1.0324860529429782e+02 1.2422937877445765e+01 -8.3447927674583724e+01 0 0 0
5895 169 4 0.0000000000000000e+00 -8.0097826873197846e+01 1.0416493300008305e+01 -7.5805366992518060e+01 0 0 0
5896 169 4 0.0000000000000000e+00 -8.1931881263308128e+01 1.7589596213627697e+01 -8.2051157303316245e+01 0 0 0
6476 186 4 0.0000000000000000e+00 -1.9652693388615691e+02 2.4591597470051859e+01 -7.7600052280613653e+01 0 0 0
6477 186 4 0.0000000000000000e+00 -1.8760837743816234e+02 2.7790781586039433e+01 -7.7504557744834926e+01 0 0 0
6288 180 4 0.0000000000000000e+00 -1.5792149437304619e+02 2.3772832988739449e+01 -8.1736254848630850e+01 0 0 0
6287 180 4 0.0000000000000000e+00 -1.6257104976862331e+02 2.4672912312946288e+01 -7.2712858668048383e+01 0 0 0
1925 55 2 0.0000000000000000e+00 -1.3423837346334915e+02 2.6179959085288630e+01 -8.1095221188642711e+01 0 0 0
1924 55 2 0.0000000000000000e+00 -1.2826484905788647e+02 2.7334699081346155e+01 -7.3033015262110936e+01 0 0 0
3722 107 4 0.0000000000000000e+00 -1.3746477328611448e+02 3.6812235540756802e+01 -7.7675557869234083e+01 0 0 0
2922 84 2 0.0000000000000000e+00 -1.1956730594479404e+02 2.5825901897964766e+01 -7.7575378458217926e+01 0 0 0
2921 84 2 0.0000000000000000e+00 -1.1178007549010364e+02 3.0731949195530660e+01 -7.3573424886709631e+01 0 0 0
2920 84 2 0.0000000000000000e+00 -1.0207283569393084e+02 2.9895568071387103e+01 -7.2524371089861532e+01 0 0 0
2918 84 2 0.0000000000000000e+00 -8.6037075681922900e+01 3.1042713701113488e+01 -7.7129360029144650e+01 0 0 0
2917 84 2 0.0000000000000000e+00 -7.8038902571268650e+01 3.1841524530234761e+01 -8.1675619213527881e+01 0 0 0
2485 71 2 0.0000000000000000e+00 -8.1296443308861114e+01 -1.2092859711769414e+02 -6.7492926909130659e+01 0 0 0
3923 113 4 0.0000000000000000e+00 -9.5961792825718177e+01 -1.0287292248988815e+02 -6.1013164198310996e+01 0 0 0
2484 71 2 0.0000000000000000e+00 -8.3325893701604798e+01 -1.1179978220903985e+02 -7.0403411639765181e+01 0 0 0
2483 71 2 0.0000000000000000e+00 -8.2950440823189069e+01 -1.0165112746352024e+02 -6.9827163229476369e+01 0 0 0
2027 58 1 0.0000000000000000e+00 -7.3117171419266995e+01 -1.0434269234264742e+02 -6.9238815566162245e+01 0 0 0
2482 71 1 0.0000000000000000e+00 -8.5997789375717431e+01 -9.2229577191087145e+01 -6.9512836983155239e+01 0 0 0
3924 113 3 0.0000000000000000e+00 -8.8254251537698039e+01 -9.7352440096597874e+01 -5.9866228523450850e+01 0 0 0
3925 113 4 0.0000000000000000e+00 -9.2061045741740145e+01 -8.7969816998605438e+01 -5.9821302181432515e+01 0 0 0
2026 58 2 0.0000000000000000e+00 -7.3235073131015355e+01 -9.8398258222994414e+01 -6.0973155485827668e+01 0 0 0
2481 71 2 0.0000000000000000e+00 -8.3968433871599984e+01 -8.4378810128558229e+01 -6.3676896923215111e+01 0 0 0
2535 73 2 0.0000000000000000e+00 -1.0358998048856382e+02 -6.5328311083629117e+01 -6.5789104886050580e+01 0 0 0
2536 73 2 0.0000000000000000e+00 -9.5208605886447870e+01 -6.2673164276420231e+01 -7.0551252094072566e+01 0 0 0
4168 120 4 0.0000000000000000e+00 -8.7956730567832423e+01 -3.4024777713131058e+01 -6.5625756479754415e+01 0 0 0
4169 120 3 0.0000000000000000e+00 -7.9688582036285922e+01 -3.9623644107461558e+01 -6.6006797353961829e+01 0 0 0
1516 44 1 0.0000000000000000e+00 -7.0386060096340245e+01 -3.3321761711074778e+01 -6.8312276270751113e+01 0 0 0
5529 158 4 0.0000000000000000e+00 -1.9637475964448058e+02 -1.9047744395898889e+01 -6.4354371758244255e+01 0 0 0
932 27 2 0.0000000000000000e+00 -1.3806003724193320e+02 -2.0156258136848106e+01 -5.8416392310762077e+01 0 0 0
931 27 2 0.0000000000000000e+00 -1.3523139139084546e+02 -2.6110115995798715e+01 -6.4939204585354460e+01 0 0 0