LAMMPS data file via write_data, version 5 Jun 2019, timestep = 340000000

7000 atoms
4 atom types
7285 bonds
3 bond types
6600 angles
2 angle types

-5.0000000000000000e+02 5.0000000000000000e+02 xlo xhi
-5.0000000000000000e+02 5.0000000000000000e+02 ylo yhi
-5.0000000000000000e+02 5.0000000000000000e+02 zlo zhi

Masses

1 1000
2 1000
3 1000
4 1000

Pair Coeffs # lj/cut

1 0.178 10
2 0.178 10
3 0.178 10
4 0.178 10

Angle Coeffs # cosine

1 2
2 2

Atoms # full

6509 186 4 0.0000000000000000e+00 -5.4917865239272523e+01 -5.4640257129933218e+01 -2.0349447177422704e+02 0 0 0
6510 186 4 0.0000000000000000e+00 -6.2464894832559558e+01 -4.8573892467936524e+01 -2.0688175929723334e+02 0 0 0
6508 186 4 0.0000000000000000e+00 -5.4050521262559890e+01 -5.8412090435621998e+01 -1.9365767629332007e+02 0 0 0
2224 64 2 0.0000000000000000e+00 -6.7217000627552608e+01 -4.9120189783091654e+01 -1.9271724653046465e+02 0 0 0
4445 127 4 0.0000000000000000e+00 -7.3349063056639338e+01 -3.1176179251346287e+01 -1.9209433308544513e+02 0 0 0
2223 64 1 0.0000000000000000e+00 -6.2596813624462939e+01 -5.6721600014521272e+01 -1.8833246426864002e+02 0 0 0
2222 64 2 0.0000000000000000e+00 -6.0397962439339175e+01 -5.3330522102424602e+01 -1.7915529261541155e+02 0 0 0
6507 186 3 0.0000000000000000e+00 -5.2914512668505807e+01 -6.1141843819331470e+01 -1.8450028456872553e+02 0 0 0
2226 64 2 0.0000000000000000e+00 -7.9309458834996590e+01 -4.1879583475770971e+01 -1.8019247696703107e+02 0 0 0
2225 64 2 0.0000000000000000e+00 -7.0793300430469301e+01 -4.5350275121731848e+01 -1.8458100852931540e+02 0 0 0
2227 64 2 0.0000000000000000e+00 -8.6510009410226274e+01 -3.6242741231173817e+01 -1.7739504995158725e+02 0 0 0
1633 47 2 0.0000000000000000e+00 -3.7059134375661792e+01 -2.8751564389900775e+01 -1.7883048349913048e+02 0 0 0
4444 127 4 0.0000000000000000e+00 -7.1431579713700188e+01 -2.4766620595838393e+01 -1.8495747208587528e+02 0 0 0
1631 47 2 0.0000000000000000e+00 -4.9942821963462990e+01 -1.5355907015201636e+01 -1.7835760070429654e+02 0 0 0
1632 47 2 0.0000000000000000e+00 -4.6061490292021738e+01 -2.4827587320490075e+01 -1.7720779485171934e+02 0 0 0
4730 136 4 0.0000000000000000e+00 -2.1469857219615708e+01 -1.4850826304937591e+01 -1.7743664964632970e+02 0 0 0
2231 64 2 0.0000000000000000e+00 -8.4180941340373522e+01 -3.7634489421733504e+00 -1.7651514836635280e+02 0 0 0
2232 64 2 0.0000000000000000e+00 -7.9777304725576457e+01 5.6272204792319744e+00 -1.7723510405468642e+02 0 0 0
2233 64 2 0.0000000000000000e+00 -7.8598426261639517e+01 1.5982649891297452e+01 -1.7844665271095039e+02 0 0 0
2234 64 2 0.0000000000000000e+00 -7.8955081266783395e+01 2.5632608834725065e+01 -1.7856405849612932e+02 0 0 0
6335 181 4 0.0000000000000000e+00 -9.7062839560439571e+01 -7.3010784830670858e+01 -1.7384690053014339e+02 0 0 0
1374 40 2 0.0000000000000000e+00 -7.0423205503985315e+01 -6.7157100416683505e+01 -1.6862303050624274e+02 0 0 0
1373 40 2 0.0000000000000000e+00 -6.3808337236142002e+01 -7.3163108658462079e+01 -1.6523760051179573e+02 0 0 0
6334 181 4 0.0000000000000000e+00 -8.8732558904644279e+01 -6.5838935915299757e+01 -1.7270413536702577e+02 0 0 0
6333 181 4 0.0000000000000000e+00 -9.1098922229886384e+01 -5.6534841365039419e+01 -1.6984389755655491e+02 0 0 0
1375 40 2 0.0000000000000000e+00 -7.9526241133680159e+01 -6.5529782121914224e+01 -1.7031632873064822e+02 0 0 0
1376 40 1 0.0000000000000000e+00 -7.9285304648547665e+01 -5.6393468260795956e+01 -1.6607849826450916e+02 0 0 0
2221 64 2 0.0000000000000000e+00 -6.3583288099361326e+01 -5.5296586563171147e+01 -1.6987307732313559e+02 0 0 0
2220 64 2 0.0000000000000000e+00 -6.3492693875046278e+01 -6.2729915612912208e+01 -1.6312055844942461e+02 0 0 0
6505 186 4 0.0000000000000000e+00 -5.3120864423527124e+01 -5.7375617606483516e+01 -1.6491014942414978e+02 0 0 0
6506 186 4 0.0000000000000000e+00 -5.2678250147679371e+01 -5.9395463670303918e+01 -1.7468464086065393e+02 0 0 0
6332 181 3 0.0000000000000000e+00 -8.5848200200523621e+01 -4.7004760512429094e+01 -1.6881188355367408e+02 0 0 0
6331 181 4 0.0000000000000000e+00 -7.5844381876032443e+01 -4.6506632983103167e+01 -1.6752444874159013e+02 0 0 0
6330 181 4 0.0000000000000000e+00 -6.6653209208694619e+01 -4.3064287574719216e+01 -1.6646863916980507e+02 0 0 0
5431 156 4 0.0000000000000000e+00 -4.6113440760018285e+01 -4.6570191284507487e+01 -1.6612392228968838e+02 0 0 0
2228 64 2 0.0000000000000000e+00 -9.3596426873430332e+01 -3.0527834100733521e+01 -1.7224135311738289e+02 0 0 0
5429 156 3 0.0000000000000000e+00 -6.1311519252854126e+01 -3.2948738898596901e+01 -1.6983567597773171e+02 0 0 0
5430 156 4 0.0000000000000000e+00 -5.3627231643285143e+01 -3.9332965507548820e+01 -1.6886979541353915e+02 0 0 0
1634 47 2 0.0000000000000000e+00 -2.8100047224865516e+01 -2.9315985206141622e+01 -1.7475756008002378e+02 0 0 0
2229 64 2 0.0000000000000000e+00 -9.4382248455287609e+01 -2.1088450970047042e+01 -1.7134912745568403e+02 0 0 0
2230 64 1 0.0000000000000000e+00 -8.8048125538561933e+01 -1.3423372187562659e+01 -1.7536793679596209e+02 0 0 0
4443 127 4 0.0000000000000000e+00 -7.5005502724807712e+01 -2.2431488811877113e+01 -1.7597620703282990e+02 0 0 0
4442 127 3 0.0000000000000000e+00 -7.7613176584217513e+01 -1.3050612763322004e+01 -1.7204397268462586e+02 0 0 0
5426 156 4 0.0000000000000000e+00 -8.1647424841280056e+01 -1.8976210007491623e+01 -1.6374484723142828e+02 0 0 0
5427 156 4 0.0000000000000000e+00 -7.1949918660222608e+01 -2.0430812438080959e+01 -1.6640386760251045e+02 0 0 0
1630 47 2 0.0000000000000000e+00 -5.9434359759607702e+01 -1.5131316104874141e+01 -1.7556822880425204e+02 0 0 0
5428 156 4 0.0000000000000000e+00 -6.4811802174318984e+01 -2.3867369663634477e+01 -1.7243936062144056e+02 0 0 0
4728 136 4 0.0000000000000000e+00 -3.8010051275891129e+01 -2.1318289349809373e+01 -1.7217831677021326e+02 0 0 0
4727 136 4 0.0000000000000000e+00 -3.6601969504365158e+01 -1.7265244431362511e+01 -1.6316188090030661e+02 0 0 0
4729 136 3 0.0000000000000000e+00 -2.9358396953160085e+01 -2.0165100695457923e+01 -1.7630853386387247e+02 0 0 0
1635 47 1 0.0000000000000000e+00 -2.1814566713850812e+01 -2.4157608110936913e+01 -1.6883208735049811e+02 0 0 0
4441 127 4 0.0000000000000000e+00 -8.4058529748723515e+01 -6.9045240388370983e+00 -1.6763448810174307e+02 0 0 0
1629 47 2 0.0000000000000000e+00 -6.8737259040259829e+01 -1.0839632336383605e+01 -1.7423282232639943e+02 0 0 0
1628 47 1 0.0000000000000000e+00 -6.7069239117098249e+01 -9.1910929326456747e-01 -1.7186593157985965e+02 0 0 0
1627 47 2 0.0000000000000000e+00 -6.1105492379110601e+01 -3.9956900139700091e-01 -1.6484322648130222e+02 0 0 0
2219 64 2 0.0000000000000000e+00 -7.2103807458110069e+01 -6.7490248507093924e+01 -1.5938638112691157e+02 0 0 0
1372 40 2 0.0000000000000000e+00 -6.1730376105274424e+01 -7.4643375957673527e+01 -1.5557232537816242e+02 0 0 0
2218 64 2 0.0000000000000000e+00 -7.6611072251874901e+01 -6.5966898858992508e+01 -1.5080521261136866e+02 0 0 0
6504 186 4 0.0000000000000000e+00 -5.7070399159867890e+01 -5.5080642258786490e+01 -1.5590112676676699e+02 0 0 0
5433 156 4 0.0000000000000000e+00 -3.7951488866778675e+01 -6.2507301518397988e+01 -1.6229375217119730e+02 0 0 0
5432 156 4 0.0000000000000000e+00 -4.1490658610483635e+01 -5.3459809978221934e+01 -1.6080624303841438e+02 0 0 0
5434 156 4 0.0000000000000000e+00 -3.1263678343477515e+01 -6.2398348451542667e+01 -1.5493303500364536e+02 0 0 0
5435 156 4 0.0000000000000000e+00 -2.1875803156533458e+01 -6.4840935382044776e+01 -1.5500330696012355e+02 0 0 0
1377 40 2 0.0000000000000000e+00 -7.7062084467629958e+01 -5.2612694375724843e+01 -1.5627823240096288e+02 0 0 0
6329 181 4 0.0000000000000000e+00 -6.5988249001052665e+01 -3.9600297435519799e+01 -1.5747615883253476e+02 0 0 0
1378 40 2 0.0000000000000000e+00 -6.9125710264709639e+01 -5.1357764122105110e+01 -1.4954734423364513e+02 0 0 0
6328 181 4 0.0000000000000000e+00 -5.7445207848195182e+01 -4.3353605617513978e+01 -1.5703420673243809e+02 0 0 0
6327 181 4 0.0000000000000000e+00 -4.7720899320760026e+01 -4.4918462028820507e+01 -1.5481653801534205e+02 0 0 0
6326 181 4 0.0000000000000000e+00 -3.7895259541804982e+01 -4.1682816706086733e+01 -1.5375180786254418e+02 0 0 0
2093 60 2 0.0000000000000000e+00 -9.3554220806387391e+01 -3.4081681254297827e+01 -1.5080132849028618e+02 0 0 0
2213 64 2 0.0000000000000000e+00 -7.6024630714257583e+01 -3.8595737400884232e+01 -1.5181988879486173e+02 0 0 0
2092 60 2 0.0000000000000000e+00 -8.4513761243566279e+01 -3.2164136008741750e+01 -1.5432826808501824e+02 0 0 0
2091 60 2 0.0000000000000000e+00 -7.7904202248102422e+01 -3.0578480897493620e+01 -1.6172783379323573e+02 0 0 0
2090 60 1 0.0000000000000000e+00 -6.8188856185498963e+01 -2.9445027332973336e+01 -1.6177814111355860e+02 0 0 0
2212 64 2 0.0000000000000000e+00 -7.0647777209289458e+01 -3.0387846087999694e+01 -1.5135495685795235e+02 0 0 0
1535 44 2 0.0000000000000000e+00 -5.0047576931382117e+01 -3.4839311462663709e+01 -1.5148196549482770e+02 0 0 0
1536 44 2 0.0000000000000000e+00 -4.1745544480730999e+01 -3.0308308777965848e+01 -1.5076112492751130e+02 0 0 0
2089 60 2 0.0000000000000000e+00 -6.1674497828553676e+01 -2.2639490491588340e+01 -1.5801468080599506e+02 0 0 0
2088 60 2 0.0000000000000000e+00 -6.1370651647294167e+01 -1.2999000320203086e+01 -1.5489848765811419e+02 0 0 0
6319 181 4 0.0000000000000000e+00 -5.0373660831144392e+01 -1.3617925260203926e+01 -1.5451995264284537e+02 0 0 0
6320 181 4 0.0000000000000000e+00 -4.5919191726109268e+01 -2.1147279824735676e+01 -1.4967013428465992e+02 0 0 0
1538 44 2 0.0000000000000000e+00 -2.7984153151336709e+01 -2.0040533529939552e+01 -1.5454255051558280e+02 0 0 0
1539 44 2 0.0000000000000000e+00 -2.1574098379698174e+01 -1.3795710792118447e+01 -1.5828922602650709e+02 0 0 0
4440 127 4 0.0000000000000000e+00 -8.9192068110944959e+01 -1.4478198512035145e-01 -1.6225571303952410e+02 0 0 0
5541 159 3 0.0000000000000000e+00 -7.1456545104501430e+01 -2.1701682599784338e+00 -1.6126904149660174e+02 0 0 0
5542 159 4 0.0000000000000000e+00 -7.2320678770064035e+01 -6.6788182174351363e+00 -1.5235540790957040e+02 0 0 0
2087 60 2 0.0000000000000000e+00 -6.2585265967167622e+01 -3.2314077894399134e+00 -1.5616664422246541e+02 0 0 0
6318 181 3 0.0000000000000000e+00 -5.1172531553696381e+01 -4.0875660953984561e+00 -1.5297371756653715e+02 0 0 0
4726 136 4 0.0000000000000000e+00 -3.3040139980580257e+01 -1.1189672983391105e+01 -1.5548185387632080e+02 0 0 0
2207 64 2 0.0000000000000000e+00 -3.5014006038557106e+01 -2.1089930183820491e+00 -1.5000544435022161e+02 0 0 0
2208 64 2 0.0000000000000000e+00 -4.3268611769742769e+01 -8.1427367749808095e+00 -1.5033728437502583e+02 0 0 0
2206 64 2 0.0000000000000000e+00 -2.4735535230960668e+01 -1.3384941325121118e+00 -1.5203383273730549e+02 0 0 0
4438 127 4 0.0000000000000000e+00 -9.2111034699865684e+01 1.2596509236964435e+01 -1.4963204700212424e+02 0 0 0
4439 127 4 0.0000000000000000e+00 -9.4065261351312529e+01 5.5928056155535799e+00 -1.5658370674913897e+02 0 0 0
5540 159 4 0.0000000000000000e+00 -6.9985959878858125e+01 6.4237593341227015e+00 -1.5696634670038168e+02 0 0 0
5539 159 4 0.0000000000000000e+00 -6.9771699745292139e+01 1.3549267800250201e+01 -1.4986591943623236e+02 0 0 0
1626 47 2 0.0000000000000000e+00 -5.6189208292439048e+01 6.8016463934079869e+00 -1.5998296447056211e+02 0 0 0
1625 47 2 0.0000000000000000e+00 -4.7952762053860305e+01 1.2894985187390487e+01 -1.6109872110857594e+02 0 0 0
6317 181 4 0.0000000000000000e+00 -4.9943394057840948e+01 5.3849678564399763e+00 -1.5154551687099598e+02 0 0 0
1624 47 2 0.0000000000000000e+00 -3.7799182023758675e+01 1.2306707228222541e+01 -1.6290011339966594e+02 0 0 0
1623 47 2 0.0000000000000000e+00 -2.8296424703970619e+01 1.4503133492025002e+01 -1.6224231698136339e+02 0 0 0
4747 136 4 0.0000000000000000e+00 -7.9368034933316679e+01 1.6681565930610315e+01 -1.5231037009486244e+02 0 0 0
4746 136 4 0.0000000000000000e+00 -7.9792217832302256e+01 2.5830452912755771e+01 -1.5714336794578099e+02 0 0 0
4548 130 4 0.0000000000000000e+00 -3.4870249962854849e+01 2.2131328029393458e+01 -1.5181498838993289e+02 0 0 0
1622 47 2 0.0000000000000000e+00 -2.4583946059357309e+01 1.9599218723254513e+01 -1.5419417249449882e+02 0 0 0
2217 64 2 0.0000000000000000e+00 -8.5412453045841048e+01 -6.8864654997918734e+01 -1.4712544737924568e+02 0 0 0
1370 40 2 0.0000000000000000e+00 -7.2297986563996332e+01 -7.6901325621074122e+01 -1.4128735642743348e+02 0 0 0
1371 40 2 0.0000000000000000e+00 -6.4778221782406519e+01 -7.2591144581126642e+01 -1.4652920477570100e+02 0 0 0
2628 76 2 0.0000000000000000e+00 -2.0086365067874432e+01 -6.9853656785095794e+01 -1.4091385665513221e+02 0 0 0
2627 76 2 0.0000000000000000e+00 -2.3197310316031821e+01 -7.9229365459385605e+01 -1.3917698178263583e+02 0 0 0
2216 64 1 0.0000000000000000e+00 -9.0436115226677970e+01 -6.1589836754070660e+01 -1.4178808916860757e+02 0 0 0
6501 186 4 0.0000000000000000e+00 -7.8102240717962090e+01 -5.8734586441050681e+01 -1.4217017401028042e+02 0 0 0
6503 186 4 0.0000000000000000e+00 -5.9917504193432599e+01 -6.1868228135778935e+01 -1.4847357303391536e+02 0 0 0
6502 186 4 0.0000000000000000e+00 -6.8489625150101020e+01 -6.1567855838942130e+01 -1.4305709749886611e+02 0 0 0
2215 64 2 0.0000000000000000e+00 -8.7511868032508247e+01 -5.2566857140950098e+01 -1.4462165287005348e+02 0 0 0
2095 60 2 0.0000000000000000e+00 -9.5681215394180171e+01 -3.9957215689438101e+01 -1.3675191485601727e+02 0 0 0
2094 60 2 0.0000000000000000e+00 -9.9631123608256061e+01 -4.0445593752666326e+01 -1.4586002833473179e+02 0 0 0
2214 64 2 0.0000000000000000e+00 -8.4141341156255749e+01 -4.3093162714500984e+01 -1.4862473892365728e+02 0 0 0
2098 60 2 0.0000000000000000e+00 -7.5681793911895767e+01 -4.0501251080055489e+01 -1.3958481584924002e+02 0 0 0
1379 40 2 0.0000000000000000e+00 -5.9159405033783642e+01 -4.8988898038445058e+01 -1.4754233183077528e+02 0 0 0
1534 44 2 0.0000000000000000e+00 -5.4727412158515463e+01 -4.1575656876992731e+01 -1.4536150618091557e+02 0 0 0
1380 40 2 0.0000000000000000e+00 -5.5766141285498641e+01 -5.1667247414214188e+01 -1.3835424286157925e+02 0 0 0
2100 60 2 0.0000000000000000e+00 -5.9828567079831295e+01 -3.3514579790431377e+01 -1.4893759972683182e+02 0 0 0
2099 60 2 0.0000000000000000e+00 -6.8372669625360857e+01 -3.7121064383756170e+01 -1.4588618707051270e+02 0 0 0
1533 44 2 0.0000000000000000e+00 -5.5110567333970032e+01 -3.3480275067513269e+01 -1.3896133629469236e+02 0 0 0
6325 181 3 0.0000000000000000e+00 -3.3569170055581580e+01 -3.5166592940611416e+01 -1.4789911572764194e+02 0 0 0
6324 181 4 0.0000000000000000e+00 -3.3073998949200977e+01 -3.3548911793489417e+01 -1.3821897418871751e+02 0 0 0
4843 139 4 0.0000000000000000e+00 -2.1187078357082012e+01 -2.9290688166591771e+01 -1.3888565637810302e+02 0 0 0
6300 180 4 0.0000000000000000e+00 -1.2025669145494290e+02 -1.9651950227109346e+01 -1.3747006003372363e+02 0 0 0
2082 60 2 0.0000000000000000e+00 -9.3087287463490568e+01 -1.7700826222244565e+01 -1.3951716159786966e+02 0 0 0
6515 187 4 0.0000000000000000e+00 -7.9679954976924222e+01 -2.5266429120783698e+01 -1.4114035805434511e+02 0 0 0
6516 187 4 0.0000000000000000e+00 -7.6983060136510716e+01 -1.6087614745220900e+01 -1.3897756225807186e+02 0 0 0
2211 64 2 0.0000000000000000e+00 -6.6158971089390448e+01 -2.1773937453950165e+01 -1.4849277815336058e+02 0 0 0
5544 159 4 0.0000000000000000e+00 -6.5113039571738369e+01 -1.6198413551053772e+01 -1.3792382818977822e+02 0 0 0
2210 64 2 0.0000000000000000e+00 -5.7332358109062469e+01 -1.9342855599336591e+01 -1.4507839378580724e+02 0 0 0
1537 44 1 0.0000000000000000e+00 -3.5042984303095416e+01 -2.4259246451813262e+01 -1.4896072273002466e+02 0 0 0
6321 181 4 0.0000000000000000e+00 -4.3910878849095738e+01 -1.9245597600391768e+01 -1.4014255541326273e+02 0 0 0
6322 181 4 0.0000000000000000e+00 -3.5889932648060451e+01 -1.5198717715064575e+01 -1.3684654219045140e+02 0 0 0
2083 60 1 0.0000000000000000e+00 -8.5385396671786594e+01 -1.1162166415539708e+01 -1.4076501267302683e+02 0 0 0
2084 60 2 0.0000000000000000e+00 -7.9018403848610319e+01 -4.7871053501893046e+00 -1.4606980991084055e+02 0 0 0
5543 159 4 0.0000000000000000e+00 -7.0349980849601110e+01 -1.0881937073245364e+01 -1.4341631891228459e+02 0 0 0
2209 64 1 0.0000000000000000e+00 -5.1605930966152073e+01 -1.1655108215896750e+01 -1.4555633308826307e+02 0 0 0
3023 87 2 0.0000000000000000e+00 -2.7244960624496429e+01 -8.6238639113163362e+00 -1.4276025411166412e+02 0 0 0
3022 87 2 0.0000000000000000e+00 -3.1475808062475718e+01 -4.6456947752529160e-01 -1.3871896783235988e+02 0 0 0
3024 87 2 0.0000000000000000e+00 -1.8163566852264733e+01 -1.0520196624215872e+01 -1.4473044043484310e+02 0 0 0
4749 136 4 0.0000000000000000e+00 -8.8323772082151251e+01 2.8804779327661136e+00 -1.4338378879936889e+02 0 0 0
4748 136 4 0.0000000000000000e+00 -8.1286793156484933e+01 8.5280008452746543e+00 -1.4749108620428487e+02 0 0 0
2085 60 2 0.0000000000000000e+00 -7.1768260044723178e+01 1.9088850922055400e+00 -1.4259163481542404e+02 0 0 0
2086 60 2 0.0000000000000000e+00 -6.2750919341393235e+01 2.0072030793543707e+00 -1.4769107478660774e+02 0 0 0
5538 159 4 0.0000000000000000e+00 -6.7884501303322395e+01 1.2753801376381153e+01 -1.4017084391907579e+02 0 0 0
6316 181 4 0.0000000000000000e+00 -5.6419593706270625e+01 8.7786305587595734e+00 -1.4425605176225216e+02 0 0 0
4547 130 3 0.0000000000000000e+00 -3.4993073240051920e+01 1.2602190627678892e+01 -1.4812544179214692e+02 0 0 0
3021 87 1 0.0000000000000000e+00 -3.3676241235079381e+01 9.2598564325277444e+00 -1.3758339701679807e+02 0 0 0
4546 130 4 0.0000000000000000e+00 -2.5976326544770661e+01 1.0922257372674617e+01 -1.4311774731894707e+02 0 0 0
4545 130 4 0.0000000000000000e+00 -1.8703282780667461e+01 5.9152239251118637e+00 -1.3737202818389812e+02 0 0 0
4437 127 4 0.0000000000000000e+00 -8.8993113982363624e+01 2.1106919184769492e+01 -1.4939035207137067e+02 0 0 0
1621 47 1 0.0000000000000000e+00 -2.2145639656670252e+01 2.6343756061957425e+01 -1.4702916459998076e+02 0 0 0
1367 40 2 0.0000000000000000e+00 -9.4639670955761460e+01 -8.0737536969566662e+01 -1.2723239836658907e+02 0 0 0
2626 76 2 0.0000000000000000e+00 -2.2701359513856005e+01 -8.4222532441283974e+01 -1.3045053454696225e+02 0 0 0
1368 40 2 0.0000000000000000e+00 -8.5740931444354231e+01 -7.8142621105404388e+01 -1.2726635239755252e+02 0 0 0
1369 40 1 0.0000000000000000e+00 -7.9397930141684597e+01 -7.8872017449291334e+01 -1.3482379938053430e+02 0 0 0
4198 120 4 0.0000000000000000e+00 -8.3804186332762924e+01 -6.9147079425913461e+01 -1.2731057306590422e+02 0 0 0
4197 120 3 0.0000000000000000e+00 -7.7110235335715757e+01 -7.5989588808199244e+01 -1.2404755089125406e+02 0 0 0
6499 186 4 0.0000000000000000e+00 -9.2872956517802876e+01 -5.3172734903771428e+01 -1.3099512032067761e+02 0 0 0
6500 186 3 0.0000000000000000e+00 -8.4569095742263883e+01 -5.6729555221959963e+01 -1.3471392998268880e+02 0 0 0
4199 120 4 0.0000000000000000e+00 -8.6706079327374198e+01 -5.9795600824226760e+01 -1.2605233974910175e+02 0 0 0
6498 186 4 0.0000000000000000e+00 -1.0237007457067361e+02 -5.1683183400948650e+01 -1.2844078116773477e+02 0 0 0
2096 60 2 0.0000000000000000e+00 -8.8912400162419559e+01 -4.1264476679714612e+01 -1.2900388235896213e+02 0 0 0
2097 60 1 0.0000000000000000e+00 -7.9185798753621114e+01 -4.2391853060806099e+01 -1.3048931864957265e+02 0 0 0
4200 120 4 0.0000000000000000e+00 -8.4368789494588682e+01 -5.0661523170284084e+01 -1.2309189977146822e+02 0 0 0
1381 40 2 0.0000000000000000e+00 -5.4606394242699174e+01 -5.0581725686331367e+01 -1.2817918639962610e+02 0 0 0
1611 47 2 0.0000000000000000e+00 -3.5578322246408419e+01 -4.1084035323013445e+01 -1.2907918436345190e+02 0 0 0
4845 139 4 0.0000000000000000e+00 -2.0832743475867179e+01 -4.3438309402605277e+01 -1.2553291210904140e+02 0 0 0
2550 73 2 0.0000000000000000e+00 -1.3163002904970136e+02 -3.0279408435493668e+01 -1.2658295799349784e+02 0 0 0
6514 187 3 0.0000000000000000e+00 -7.8536324500549185e+01 -3.1186526915615818e+01 -1.3350155639371090e+02 0 0 0
6513 187 4 0.0000000000000000e+00 -8.2393614146761635e+01 -2.8306548947967595e+01 -1.2433037200598109e+02 0 0 0
5546 159 4 0.0000000000000000e+00 -6.7003892868937925e+01 -3.2320254295814252e+01 -1.2800943403131967e+02 0 0 0
1612 47 2 0.0000000000000000e+00 -3.2758886775140944e+01 -3.4091427272587914e+01 -1.2423827733039776e+02 0 0 0
4844 139 4 0.0000000000000000e+00 -2.0284846826796795e+01 -3.7467652734922702e+01 -1.3297762897907856e+02 0 0 0
4842 139 4 0.0000000000000000e+00 -1.8956624232079733e+01 -2.8577177337428097e+01 -1.2912880320785524e+02 0 0 0
2551 73 2 0.0000000000000000e+00 -1.3796008324502847e+02 -2.2671371566338447e+01 -1.2658279283172936e+02 0 0 0
2552 73 1 0.0000000000000000e+00 -1.3937362521192927e+02 -1.2577364873775334e+01 -1.2623974821856079e+02 0 0 0
6299 180 4 0.0000000000000000e+00 -1.1881289325750164e+02 -1.3687892768798486e+01 -1.2970694011010917e+02 0 0 0
2081 60 2 0.0000000000000000e+00 -9.3352936292941536e+01 -1.6988376504030281e+01 -1.3013112048405674e+02 0 0 0
5545 159 4 0.0000000000000000e+00 -6.6182033050361710e+01 -2.5615933770779542e+01 -1.3512629053681974e+02 0 0 0
1532 44 2 0.0000000000000000e+00 -5.2776249229412137e+01 -2.4532106565535337e+01 -1.3490414781169287e+02 0 0 0
1531 44 2 0.0000000000000000e+00 -4.6638645816393172e+01 -1.8025462417079392e+01 -1.2994364383250672e+02 0 0 0
6323 181 4 0.0000000000000000e+00 -3.5077657967443272e+01 -2.4591403542100799e+01 -1.3493940232662143e+02 0 0 0
1613 47 2 0.0000000000000000e+00 -2.8138109693126147e+01 -2.5149807034306953e+01 -1.2372755087025362e+02 0 0 0
2553 73 2 0.0000000000000000e+00 -1.3847370356364760e+02 -2.6011029322602166e+00 -1.2571529085100153e+02 0 0 0
6298 180 4 0.0000000000000000e+00 -1.2672550926945483e+02 -1.2349059928811126e+01 -1.2387196372446813e+02 0 0 0
4750 136 3 0.0000000000000000e+00 -9.1079431096312021e+01 -2.6886231467798050e+00 -1.3574110581310148e+02 0 0 0
4751 136 4 0.0000000000000000e+00 -9.8532879519191482e+01 -6.9634837198091839e+00 -1.3072442192153315e+02 0 0 0
2077 60 2 0.0000000000000000e+00 -9.1694726120871664e+01 8.7754450292700970e-01 -1.2280773557384271e+02 0 0 0
6517 187 4 0.0000000000000000e+00 -7.3808504025180298e+01 -1.1597431956340351e+01 -1.3101100707826248e+02 0 0 0
5128 147 3 0.0000000000000000e+00 -5.7474338312907065e+01 -5.5292501161467014e+00 -1.2467022676601918e+02 0 0 0
5129 147 4 0.0000000000000000e+00 -4.7903478433230553e+01 -2.5440777798600589e+00 -1.2513092977311854e+02 0 0 0
4543 130 4 0.0000000000000000e+00 -2.2991153560441649e+01 -8.9076619301746351e+00 -1.3138771104379063e+02 0 0 0
4544 130 4 0.0000000000000000e+00 -2.1383338437611116e+01 8.5263366732416734e-01 -1.2953517442362590e+02 0 0 0
6293 180 4 0.0000000000000000e+00 -1.4600150168205468e+02 5.1603084906339811e+00 -1.2515471759010106e+02 0 0 0
6292 180 4 0.0000000000000000e+00 -1.4084605108263094e+02 1.2831082454312110e+01 -1.2738428025293453e+02 0 0 0
2554 73 2 0.0000000000000000e+00 -1.3310647792975465e+02 4.8000486917311562e+00 -1.2829406152309463e+02 0 0 0
2555 73 2 0.0000000000000000e+00 -1.2666857928365353e+02 1.1288534412578484e+01 -1.3189335625500397e+02 0 0 0
2074 60 2 0.0000000000000000e+00 -1.1969524285807474e+02 7.3386078999488253e+00 -1.2330839656741627e+02 0 0 0
2075 60 2 0.0000000000000000e+00 -1.1054172577264117e+02 3.6348552638464420e+00 -1.2517518612472915e+02 0 0 0
2076 60 1 0.0000000000000000e+00 -1.0082607254500590e+02 3.0934492647280818e+00 -1.2689609746914124e+02 0 0 0
6311 181 3 0.0000000000000000e+00 -9.1527629150616804e+01 8.2101606778114942e+00 -1.3149046941629220e+02 0 0 0
6313 181 4 0.0000000000000000e+00 -7.3944067013575292e+01 4.1381259532903680e+00 -1.2526581963196070e+02 0 0 0
6312 181 4 0.0000000000000000e+00 -8.3607581220169877e+01 6.6263631484614871e+00 -1.2524505416805982e+02 0 0 0
6314 181 4 0.0000000000000000e+00 -6.7010022185537707e+01 4.2731621446886177e+00 -1.3267106272916396e+02 0 0 0
6315 181 4 0.0000000000000000e+00 -5.9531918516453594e+01 1.0830630176702641e+01 -1.3486720528312316e+02 0 0 0
6310 181 4 0.0000000000000000e+00 -9.8657978657332137e+01 1.4834594453203215e+01 -1.3005229331833888e+02 0 0 0
6309 181 4 0.0000000000000000e+00 -9.4520934371708734e+01 2.3515548390027092e+01 -1.3012058729881588e+02 0 0 0
5537 159 4 0.0000000000000000e+00 -7.1759910605583869e+01 2.0672184485674030e+01 -1.3558515345976949e+02 0 0 0
5536 159 4 0.0000000000000000e+00 -7.0076444512274108e+01 2.3259056199603606e+01 -1.2621625353027309e+02 0 0 0
3018 87 2 0.0000000000000000e+00 -5.3635483610606407e+01 2.7645985906795282e+01 -1.3301501370015819e+02 0 0 0
3019 87 2 0.0000000000000000e+00 -4.4252927224801908e+01 2.4530786681559771e+01 -1.3424637341415908e+02 0 0 0
3020 87 2 0.0000000000000000e+00 -3.6854451529503365e+01 1.8233663130948230e+01 -1.3579048784438459e+02 0 0 0
1366 40 2 0.0000000000000000e+00 -9.6170904313988842e+01 -8.0196406239613822e+01 -1.1728363448784897e+02 0 0 0
4196 120 4 0.0000000000000000e+00 -7.3601994632212566e+01 -7.7459924769482043e+01 -1.1525000392994157e+02 0 0 0
6496 186 4 0.0000000000000000e+00 -1.0891096474645919e+02 -5.4017439736282221e+01 -1.1024263198122749e+02 0 0 0
6497 186 4 0.0000000000000000e+00 -1.0657659682722658e+02 -5.5297507912416918e+01 -1.1969065842381627e+02 0 0 0
2548 73 2 0.0000000000000000e+00 -1.2187969053162939e+02 -4.2092481222806036e+01 -1.1727994557878375e+02 0 0 0
1383 40 1 0.0000000000000000e+00 -5.9216272040473768e+01 -4.4275232218465312e+01 -1.0935489606582865e+02 0 0 0
1382 40 2 0.0000000000000000e+00 -5.6136837243786054e+01 -4.7931508762841020e+01 -1.1870550678871882e+02 0 0 0
2549 73 2 0.0000000000000000e+00 -1.2973757050277851e+02 -3.8288136572135194e+01 -1.2135414484827622e+02 0 0 0
2547 73 2 0.0000000000000000e+00 -1.1847146053816851e+02 -3.6709547424966068e+01 -1.1040361178320589e+02 0 0 0
6512 187 4 0.0000000000000000e+00 -8.4071146354857802e+01 -2.7488983895566633e+01 -1.1422834870167063e+02 0 0 0
5547 159 4 0.0000000000000000e+00 -6.2414820232069616e+01 -3.9044823860420159e+01 -1.2176879749731712e+02 0 0 0
5548 159 3 0.0000000000000000e+00 -5.4376095276158978e+01 -3.6751564443695656e+01 -1.1643649807100064e+02 0 0 0
5549 159 4 0.0000000000000000e+00 -4.6378230962007230e+01 -3.4405633052989963e+01 -1.1097907432327169e+02 0 0 0
5550 159 4 0.0000000000000000e+00 -3.6534592724051620e+01 -3.2126804948378009e+01 -1.0979982821418965e+02 0 0 0
4840 139 4 0.0000000000000000e+00 -1.8867042834026609e+01 -3.2196536396164824e+01 -1.1003697940633535e+02 0 0 0
2080 60 2 0.0000000000000000e+00 -9.3227913791188740e+01 -1.8923161732418961e+01 -1.2080639207595055e+02 0 0 0
2079 60 2 0.0000000000000000e+00 -8.4726288683807283e+01 -1.4758930636763431e+01 -1.1916689876566016e+02 0 0 0
5127 147 4 0.0000000000000000e+00 -5.9974701953472071e+01 -1.4893303567177533e+01 -1.2235516234907288e+02 0 0 0
5126 147 4 0.0000000000000000e+00 -5.6709339657057683e+01 -2.4517128857261849e+01 -1.2215943111013858e+02 0 0 0
5125 147 4 0.0000000000000000e+00 -4.9691197394574147e+01 -2.5215314492478484e+01 -1.1448576475162676e+02 0 0 0
1530 44 1 0.0000000000000000e+00 -5.0159828034191349e+01 -1.3992856253687707e+01 -1.2237853640577322e+02 0 0 0
1614 47 1 0.0000000000000000e+00 -2.3505197250822878e+01 -1.9886021416180665e+01 -1.1639172090595724e+02 0 0 0
6297 180 3 0.0000000000000000e+00 -1.3405597039283572e+02 -1.0835110691728753e+01 -1.1660882083108169e+02 0 0 0
6296 180 4 0.0000000000000000e+00 -1.4138213206522531e+02 -6.3182400379552259e+00 -1.1176370510645714e+02 0 0 0
4752 136 4 0.0000000000000000e+00 -1.0069166879842194e+02 -1.2163948122261200e+01 -1.2208243254635637e+02 0 0 0
4753 136 4 0.0000000000000000e+00 -9.8367840554076011e+01 -1.0828000113185666e+01 -1.1207930016557131e+02 0 0 0
2078 60 2 0.0000000000000000e+00 -8.6926140056340060e+01 -5.4308661060561816e+00 -1.1681255526686452e+02 0 0 0
6518 187 4 0.0000000000000000e+00 -7.0727754590070560e+01 -7.4278609945789560e+00 -1.2209752458918537e+02 0 0 0
6519 187 4 0.0000000000000000e+00 -6.6936730260019459e+01 -5.3987542662853034e+00 -1.1283076356006235e+02 0 0 0
1529 44 2 0.0000000000000000e+00 -4.9960775678603376e+01 -1.1879964566734710e+01 -1.1242800030842412e+02 0 0 0
5130 147 4 0.0000000000000000e+00 -3.9165211174705107e+01 3.3648184325313846e-01 -1.2154161099625085e+02 0 0 0
1615 47 2 0.0000000000000000e+00 -1.8309346365140566e+01 -1.1134376569237386e+01 -1.1358431491920682e+02 0 0 0
6294 180 4 0.0000000000000000e+00 -1.4703374280802919e+02 7.9503885328453974e+00 -1.1573007140940665e+02 0 0 0
6291 180 4 0.0000000000000000e+00 -1.4037215910241494e+02 1.4705501659905202e+01 -1.1732679577909485e+02 0 0 0
5131 147 4 0.0000000000000000e+00 -3.6908965861837579e+01 6.9915646370483273e+00 -1.1456030465487127e+02 0 0 0
5132 147 4 0.0000000000000000e+00 -2.8574854111507058e+01 1.1402936370323165e+01 -1.1835178718686943e+02 0 0 0
2071 60 2 0.0000000000000000e+00 -1.3035996861185103e+02 2.1279399305011477e+01 -1.1143815998890521e+02 0 0 0
2073 60 2 0.0000000000000000e+00 -1.2323154767925115e+02 1.5091513369711473e+01 -1.1851985948660437e+02 0 0 0
3388 97 2 0.0000000000000000e+00 -4.0961792247097506e+01 2.4851413307705823e+01 -1.1611060687174670e+02 0 0 0
5133 147 4 0.0000000000000000e+00 -2.1365889592944825e+01 1.8442241705044399e+01 -1.2016255390032721e+02 0 0 0
3993 115 4 0.0000000000000000e+00 -3.0153725783250898e+01 -1.0779893024549040e+02 -9.8275188860573536e+01 0 0 0
3992 115 4 0.0000000000000000e+00 -2.1237225633278506e+01 -1.0355909840910027e+02 -1.0085709051732991e+02 0 0 0
6238 179 4 0.0000000000000000e+00 -8.0189132898782617e+01 -8.0155500592123545e+01 -9.6009110987437950e+01 0 0 0
6237 179 4 0.0000000000000000e+00 -7.3388727431649357e+01 -7.4328492004284968e+01 -9.8924877345800539e+01 0 0 0
4195 120 4 0.0000000000000000e+00 -6.6876406278311691e+01 -7.5565759257534225e+01 -1.0808621926108442e+02 0 0 0
4194 120 4 0.0000000000000000e+00 -5.9680286033557934e+01 -7.7120816217039390e+01 -1.0065045246060298e+02 0 0 0
4193 120 4 0.0000000000000000e+00 -5.0385386246066808e+01 -7.3904415329752368e+01 -1.0188236119618425e+02 0 0 0