LAMMPS data file via write_data, version 5 Jun 2019, timestep = 380000000

7000 atoms
4 atom types
7287 bonds
3 bond types
6600 angles
2 angle types

-5.0000000000000000e+02 5.0000000000000000e+02 xlo xhi
-5.0000000000000000e+02 5.0000000000000000e+02 ylo yhi
-5.0000000000000000e+02 5.0000000000000000e+02 zlo zhi

Masses

1 1000
2 1000
3 1000
4 1000

Pair Coeffs # lj/cut

1 0.178 10
2 0.178 10
3 0.178 10
4 0.178 10

Angle Coeffs # cosine

1 2
2 2

Atoms # full

4445 127 4 0.0000000000000000e+00 -5.7002059447258553e+01 -3.6022504410785253e+01 -1.9641367852778706e+02 0 0 0
2240 64 2 0.0000000000000000e+00 -8.5017222688256268e+01 1.4487213581264733e+00 -1.9199100042564584e+02 0 0 0
5531 159 4 0.0000000000000000e+00 -8.1866721620312759e+01 1.7845199329958671e+01 -1.9217052932089874e+02 0 0 0
2224 64 2 0.0000000000000000e+00 -5.6101529792036111e+01 -8.5575483207860785e+01 -1.7682775795764695e+02 0 0 0
6510 186 4 0.0000000000000000e+00 -3.4939660060541129e+01 -7.9902082848865930e+01 -1.8272238089532016e+02 0 0 0
6335 181 4 0.0000000000000000e+00 -7.2871910475088498e+01 -7.7607370423872538e+01 -1.8560610469087848e+02 0 0 0
6334 181 4 0.0000000000000000e+00 -7.1747190087848040e+01 -7.3702245741680969e+01 -1.7676889789145829e+02 0 0 0
2226 64 2 0.0000000000000000e+00 -5.5101894477150537e+01 -6.8031329235943460e+01 -1.8122315147546027e+02 0 0 0
2225 64 2 0.0000000000000000e+00 -5.4553593907977195e+01 -7.7759732577207018e+01 -1.8226800051820572e+02 0 0 0
6509 186 4 0.0000000000000000e+00 -4.0755199076271104e+01 -7.6812758115638289e+01 -1.7459289492249064e+02 0 0 0
2227 64 2 0.0000000000000000e+00 -6.1706710924579845e+01 -6.2468966855410940e+01 -1.7641535267875506e+02 0 0 0
4726 136 4 0.0000000000000000e+00 -5.0890167369620102e+01 -6.0646072148623730e+01 -1.7695112874980407e+02 0 0 0
4727 136 4 0.0000000000000000e+00 -4.1585731405287959e+01 -5.7355489107612861e+01 -1.7656053152435697e+02 0 0 0
4728 136 4 0.0000000000000000e+00 -3.4234808771220386e+01 -5.0347853377275214e+01 -1.7719794113516076e+02 0 0 0
4442 127 3 0.0000000000000000e+00 -7.2668371463677261e+01 -3.3730271128803778e+01 -1.7775252658612760e+02 0 0 0
4444 127 4 0.0000000000000000e+00 -5.6545094425558865e+01 -3.8288059573614511e+01 -1.8660877665309394e+02 0 0 0
4443 127 4 0.0000000000000000e+00 -6.3920535752174160e+01 -3.7515246500349981e+01 -1.8056078244386427e+02 0 0 0
5426 156 4 0.0000000000000000e+00 -5.2808742210859592e+01 -3.6171074137444009e+01 -1.7448767075614163e+02 0 0 0
4441 127 4 0.0000000000000000e+00 -7.4673733549391443e+01 -2.4334992431937060e+01 -1.7381772809097774e+02 0 0 0
2239 64 2 0.0000000000000000e+00 -8.6557686120447471e+01 -3.7327628570734599e+00 -1.8388973267570833e+02 0 0 0
2238 64 2 0.0000000000000000e+00 -8.4961236601723840e+01 -6.2945023104616151e+00 -1.7453846740540396e+02 0 0 0
6308 181 4 0.0000000000000000e+00 -1.0367188849583941e+02 1.8138116299370250e+01 -1.7933658467756018e+02 0 0 0
6307 181 4 0.0000000000000000e+00 -9.9003705768976033e+01 2.4655111724860891e+01 -1.8563286589294509e+02 0 0 0
5532 159 4 0.0000000000000000e+00 -8.2698280527088329e+01 2.2008901097972608e+01 -1.8301030029095548e+02 0 0 0
5533 159 4 0.0000000000000000e+00 -8.0187842621873870e+01 1.9364021442987220e+01 -1.7361835189148363e+02 0 0 0
6506 186 4 0.0000000000000000e+00 -6.5379314432646396e+01 -8.5840379085827124e+01 -1.6280739569213537e+02 0 0 0
6507 186 3 0.0000000000000000e+00 -5.5372157793886352e+01 -8.3400342708176979e+01 -1.6170415980965541e+02 0 0 0
2223 64 1 0.0000000000000000e+00 -4.9887651021244906e+01 -8.9257438268157259e+01 -1.6966482558779768e+02 0 0 0
2222 64 2 0.0000000000000000e+00 -4.5599007331943383e+01 -8.8660139533286355e+01 -1.6084491128332431e+02 0 0 0
6333 181 4 0.0000000000000000e+00 -7.5988919623613072e+01 -7.8510280572338786e+01 -1.6895422031134461e+02 0 0 0
6332 181 3 0.0000000000000000e+00 -7.2679346590418618e+01 -7.3026860739880661e+01 -1.6097193112231321e+02 0 0 0
6508 186 4 0.0000000000000000e+00 -4.7639651861390895e+01 -7.8774886294448848e+01 -1.6731573371869678e+02 0 0 0
2093 60 2 0.0000000000000000e+00 -8.0875598319463506e+01 -5.5724313220781482e+01 -1.5965581588688212e+02 0 0 0
2228 64 2 0.0000000000000000e+00 -6.9081934420942360e+01 -5.9360640120991043e+01 -1.7044030077487153e+02 0 0 0
2230 64 1 0.0000000000000000e+00 -7.1837580237780216e+01 -4.0987266796149349e+01 -1.6865785173658384e+02 0 0 0
2229 64 2 0.0000000000000000e+00 -6.8263031028502624e+01 -4.9845971630536482e+01 -1.6978424213751475e+02 0 0 0
5427 156 4 0.0000000000000000e+00 -5.4048632963438799e+01 -4.5798278861523634e+01 -1.7132469932289797e+02 0 0 0
5428 156 4 0.0000000000000000e+00 -5.1797315828994897e+01 -5.1752206249226738e+01 -1.6362575740453588e+02 0 0 0
1635 47 1 0.0000000000000000e+00 -3.2277198393140559e+01 -4.7406290909416583e+01 -1.6331556609082412e+02 0 0 0
4729 136 3 0.0000000000000000e+00 -2.4950729779594695e+01 -5.0130456056222854e+01 -1.7168466135779875e+02 0 0 0
4730 136 4 0.0000000000000000e+00 -1.6568493080354880e+01 -5.1097575614917844e+01 -1.6643447998823109e+02 0 0 0
2231 64 2 0.0000000000000000e+00 -7.7474655549184391e+01 -3.3985832134860956e+01 -1.6393108415055190e+02 0 0 0
1634 47 2 0.0000000000000000e+00 -3.2613961681237129e+01 -3.7780648574451270e+01 -1.6396465150098763e+02 0 0 0
1633 47 2 0.0000000000000000e+00 -3.9100791834213830e+01 -3.0636287940804635e+01 -1.6121827991434151e+02 0 0 0
4440 127 4 0.0000000000000000e+00 -7.3134456853872408e+01 -1.4731995225429676e+01 -1.7082508904460661e+02 0 0 0
4743 136 3 0.0000000000000000e+00 -7.9072775098783595e+01 -1.6797972534872201e+01 -1.6322761909690692e+02 0 0 0
4741 136 4 0.0000000000000000e+00 -5.9064915159460512e+01 -1.5602470505474916e+01 -1.6307106689271779e+02 0 0 0
4742 136 4 0.0000000000000000e+00 -6.8674248084050575e+01 -1.8289563626580044e+01 -1.6237487139243572e+02 0 0 0
4740 136 4 0.0000000000000000e+00 -4.9181147180434323e+01 -1.2675376698095215e+01 -1.6339929525332360e+02 0 0 0
2237 64 1 0.0000000000000000e+00 -8.8418176165204756e+01 -1.0982179693101894e+01 -1.6671218210829497e+02 0 0 0
4439 127 4 0.0000000000000000e+00 -7.1651371759048459e+01 -4.7196125374981719e+00 -1.6675486355188539e+02 0 0 0
2072 60 2 0.0000000000000000e+00 -1.3041344522703218e+02 1.3112210127143230e+01 -1.6090651291469433e+02 0 0 0
6310 181 4 0.0000000000000000e+00 -9.6402293381831996e+01 1.1516665787518990e+01 -1.6156146628075035e+02 0 0 0
5535 159 4 0.0000000000000000e+00 -8.5770856022728893e+01 7.8944572236295070e+00 -1.6295912938783613e+02 0 0 0
4438 127 4 0.0000000000000000e+00 -6.8462115167671897e+01 4.0847868530776843e+00 -1.6256863043267731e+02 0 0 0
2071 60 2 0.0000000000000000e+00 -1.3139418210839369e+02 2.2986944436269763e+01 -1.6220598883514032e+02 0 0 0
1800 52 2 0.0000000000000000e+00 -1.1251673418970728e+02 2.5056276178081859e+01 -1.6263708475822853e+02 0 0 0
6309 181 4 0.0000000000000000e+00 -9.7944310837634021e+01 1.6848318566601172e+01 -1.7026928595032339e+02 0 0 0
1801 52 2 0.0000000000000000e+00 -1.0463679544215017e+02 2.6101462790917076e+01 -1.6925072075010218e+02 0 0 0
5534 159 3 0.0000000000000000e+00 -8.6004446928037169e+01 1.8098684959098900e+01 -1.6587653819563633e+02 0 0 0
1802 52 2 0.0000000000000000e+00 -9.4936985517525912e+01 2.8680700088422260e+01 -1.6953585140378394e+02 0 0 0
1373 40 2 0.0000000000000000e+00 -9.2111257936350071e+01 -8.8299433859059363e+01 -1.4793095519974119e+02 0 0 0
1374 40 2 0.0000000000000000e+00 -8.6203701284061410e+01 -8.3158270612673235e+01 -1.5406198424804970e+02 0 0 0
6504 186 4 0.0000000000000000e+00 -7.3048984248513236e+01 -8.1125605462034216e+01 -1.5122090100815771e+02 0 0 0
6505 186 4 0.0000000000000000e+00 -6.8289706178265163e+01 -8.9009326122301900e+01 -1.5365845786687231e+02 0 0 0
2221 64 2 0.0000000000000000e+00 -4.7798963092652222e+01 -8.2322690889912536e+01 -1.5324066817335597e+02 0 0 0
1375 40 2 0.0000000000000000e+00 -8.1683539867439521e+01 -7.6410112237664222e+01 -1.5885538687011689e+02 0 0 0
1376 40 1 0.0000000000000000e+00 -8.0950558498784261e+01 -6.7023011665503631e+01 -1.5602997478638790e+02 0 0 0
6503 186 4 0.0000000000000000e+00 -7.9945388858569544e+01 -7.5057130527829628e+01 -1.4639347676037622e+02 0 0 0
6331 181 4 0.0000000000000000e+00 -6.5762481882857813e+01 -7.1873134792488429e+01 -1.5415871058825763e+02 0 0 0
2094 60 2 0.0000000000000000e+00 -8.8750095175693929e+01 -5.3470904383876146e+01 -1.5334177684495296e+02 0 0 0
6502 186 4 0.0000000000000000e+00 -8.2844993455029339e+01 -6.5916292153953634e+01 -1.4641878388812697e+02 0 0 0
1377 40 2 0.0000000000000000e+00 -7.3783147815963417e+01 -6.1600752679653354e+01 -1.5276343079103484e+02 0 0 0
2092 60 2 0.0000000000000000e+00 -7.0980901289802645e+01 -5.3706315162250711e+01 -1.5776261701641525e+02 0 0 0
2091 60 2 0.0000000000000000e+00 -6.3066177630558492e+01 -5.7050559828076786e+01 -1.5348599691828889e+02 0 0 0
5429 156 3 0.0000000000000000e+00 -4.7267848003359092e+01 -5.3379288298353089e+01 -1.5485835494306085e+02 0 0 0
5430 156 4 0.0000000000000000e+00 -4.2760663575135808e+01 -6.1600317506258314e+01 -1.5300781563270885e+02 0 0 0
2090 60 1 0.0000000000000000e+00 -5.5311678118199993e+01 -5.5586322606049336e+01 -1.4726944641083182e+02 0 0 0
1636 47 2 0.0000000000000000e+00 -2.8237378000024922e+01 -5.4672767770289212e+01 -1.5807726336129033e+02 0 0 0
1637 47 2 0.0000000000000000e+00 -2.5261954408685007e+01 -5.5260437075705561e+01 -1.4787451839196896e+02 0 0 0
6512 187 4 0.0000000000000000e+00 -8.1654853546136778e+01 -4.4291621647006565e+01 -1.5000712775569446e+02 0 0 0
1624 47 2 0.0000000000000000e+00 -2.9779838110945995e+01 -4.4685718264886830e+01 -1.5125695794931309e+02 0 0 0
1623 47 2 0.0000000000000000e+00 -2.0014366377674612e+01 -4.2836457129344268e+01 -1.5301723382019526e+02 0 0 0
4745 136 4 0.0000000000000000e+00 -9.1234873979583213e+01 -2.7188663915478234e+01 -1.5157655332754072e+02 0 0 0
6511 187 4 0.0000000000000000e+00 -7.8302295874253332e+01 -3.7014679971818339e+01 -1.5352261961843251e+02 0 0 0
2232 64 2 0.0000000000000000e+00 -7.2145811114883870e+01 -2.7434372624415548e+01 -1.5805825293284460e+02 0 0 0
1630 47 2 0.0000000000000000e+00 -5.8331528069036182e+01 -3.1830589594365627e+01 -1.5298817621424598e+02 0 0 0
1631 47 2 0.0000000000000000e+00 -5.1516248650812464e+01 -2.8187329050146403e+01 -1.5904541979115933e+02 0 0 0
1626 47 2 0.0000000000000000e+00 -4.0750291956033358e+01 -2.8036398923737099e+01 -1.4862168969515773e+02 0 0 0
1625 47 2 0.0000000000000000e+00 -3.4401037275957137e+01 -3.5382985344858312e+01 -1.5180649382734700e+02 0 0 0
1622 47 2 0.0000000000000000e+00 -1.8179694985695978e+01 -3.4324468937828826e+01 -1.5023080706176043e+02 0 0 0
4744 136 4 0.0000000000000000e+00 -8.6057236668397010e+01 -2.2693824447986241e+01 -1.5844968767682838e+02 0 0 0
2235 64 2 0.0000000000000000e+00 -8.4456128203153753e+01 -1.4968172778661499e+01 -1.5069355582514549e+02 0 0 0
2234 64 2 0.0000000000000000e+00 -7.6750803742842734e+01 -2.1399516260318055e+01 -1.5071318579464310e+02 0 0 0
2233 64 2 0.0000000000000000e+00 -6.6550355223858659e+01 -2.1950617446265809e+01 -1.5139837151992631e+02 0 0 0
1632 47 2 0.0000000000000000e+00 -4.4034342976686119e+01 -2.2280682578919269e+01 -1.5935202860531760e+02 0 0 0
3019 87 2 0.0000000000000000e+00 -5.0135527129755197e+01 -1.4266300689825554e+01 -1.5135538352027976e+02 0 0 0
4738 136 4 0.0000000000000000e+00 -3.2603327592162323e+01 -1.3820648389306228e+01 -1.5378673135206466e+02 0 0 0
4737 136 4 0.0000000000000000e+00 -2.5801722128663570e+01 -1.7844806138412952e+01 -1.4838073495119622e+02 0 0 0
4736 136 3 0.0000000000000000e+00 -1.6332652289274979e+01 -2.1100647248250578e+01 -1.4725006996826386e+02 0 0 0
2236 64 2 0.0000000000000000e+00 -8.9178234236963789e+01 -9.2821054217646299e+00 -1.5712078213297377e+02 0 0 0
5537 159 4 0.0000000000000000e+00 -8.2542817944148126e+01 -3.9213264124999974e+00 -1.4940405138195939e+02 0 0 0
3018 87 2 0.0000000000000000e+00 -5.1118870371830624e+01 -4.2520350615556035e+00 -1.4991040556335673e+02 0 0 0
4739 136 4 0.0000000000000000e+00 -4.0217535197982137e+01 -9.4780300330068119e+00 -1.5860879345759571e+02 0 0 0
2073 60 2 0.0000000000000000e+00 -1.2850997974218785e+02 7.8810357425511501e+00 -1.5254995090311328e+02 0 0 0
2074 60 2 0.0000000000000000e+00 -1.1905160233084234e+02 6.4108708016753528e+00 -1.5046551135790006e+02 0 0 0
2075 60 2 0.0000000000000000e+00 -1.1101986355072188e+02 1.8650316996807543e+00 -1.4711176275603574e+02 0 0 0
6311 181 3 0.0000000000000000e+00 -9.5292736777335548e+01 6.9673310303295821e+00 -1.5207661928688094e+02 0 0 0
5536 159 4 0.0000000000000000e+00 -8.0825852410365400e+01 3.7162474005697037e+00 -1.5560004979446148e+02 0 0 0
4437 127 4 0.0000000000000000e+00 -6.4760275807818601e+01 1.2684344567167489e+01 -1.5947065468023061e+02 0 0 0
3016 87 2 0.0000000000000000e+00 -6.5914544655005869e+01 8.7372993765614488e+00 -1.4613134369887649e+02 0 0 0
3017 87 2 0.0000000000000000e+00 -5.6392847044538073e+01 4.3536352079954863e+00 -1.4739037965713095e+02 0 0 0
1799 52 2 0.0000000000000000e+00 -1.2126533276082300e+02 2.6640271125418924e+01 -1.5889732932669401e+02 0 0 0
4436 127 4 0.0000000000000000e+00 -7.0256862447857614e+01 2.0408744134384389e+01 -1.5688820144561700e+02 0 0 0
4435 127 3 0.0000000000000000e+00 -7.5091481349048536e+01 2.3783770739518978e+01 -1.4875963663669265e+02 0 0 0
4200 120 4 0.0000000000000000e+00 -8.3987467121015996e+01 -1.0796870131507748e+02 -1.4135822466956276e+02 0 0 0
1372 40 2 0.0000000000000000e+00 -9.7369395996295196e+01 -9.3838895206309616e+01 -1.4203669630393659e+02 0 0 0
1371 40 2 0.0000000000000000e+00 -9.1041468697250821e+01 -9.4969524872761596e+01 -1.3375211268450343e+02 0 0 0
1366 40 2 0.0000000000000000e+00 -6.6333031726063268e+01 -8.8330476066857386e+01 -1.4451201600153701e+02 0 0 0
1367 40 2 0.0000000000000000e+00 -6.7798183407192383e+01 -9.0578609465539287e+01 -1.3471344528817792e+02 0 0 0
5433 156 4 0.0000000000000000e+00 -2.8703618532013202e+01 -8.0075454181185506e+01 -1.3758993677556796e+02 0 0 0
2217 64 2 0.0000000000000000e+00 -7.3735366577332471e+01 -6.8711402515398589e+01 -1.3544687482890802e+02 0 0 0
6330 181 4 0.0000000000000000e+00 -5.9432500393525764e+01 -7.0283992352000993e+01 -1.4592335194206922e+02 0 0 0
2218 64 2 0.0000000000000000e+00 -6.5485237692895026e+01 -7.3652036872132882e+01 -1.3809114711826390e+02 0 0 0
2219 64 2 0.0000000000000000e+00 -5.7143266045758416e+01 -7.8392168170601579e+01 -1.4051154806508953e+02 0 0 0
2220 64 2 0.0000000000000000e+00 -4.7544113382522966e+01 -7.9511516002975881e+01 -1.4332147164829979e+02 0 0 0
6329 181 4 0.0000000000000000e+00 -5.2828137183316208e+01 -6.8056229215483668e+01 -1.3823868767065190e+02 0 0 0
5432 156 4 0.0000000000000000e+00 -3.3005551661126418e+01 -7.1127849448277786e+01 -1.4018101444770596e+02 0 0 0
2095 60 2 0.0000000000000000e+00 -9.4666198054866712e+01 -5.5000317472188748e+01 -1.4561680530429598e+02 0 0 0
6501 186 4 0.0000000000000000e+00 -8.5306695445448355e+01 -6.5051128579030944e+01 -1.3702692708219320e+02 0 0 0
1378 40 2 0.0000000000000000e+00 -6.8098304512921473e+01 -5.9353296127217902e+01 -1.4499895729265251e+02 0 0 0
1379 40 2 0.0000000000000000e+00 -6.2334996523448829e+01 -6.3540395014865382e+01 -1.3804693497754042e+02 0 0 0
5431 156 4 0.0000000000000000e+00 -3.8309523273552855e+01 -6.3770492170570854e+01 -1.4476214416983694e+02 0 0 0
2096 60 2 0.0000000000000000e+00 -9.4046285924411180e+01 -5.1963272327150854e+01 -1.3577850976588201e+02 0 0 0
6513 187 4 0.0000000000000000e+00 -8.3402436222760883e+01 -5.2562329608114595e+01 -1.4472229768370971e+02 0 0 0
6514 187 3 0.0000000000000000e+00 -8.3187899324838270e+01 -5.2379829805042519e+01 -1.3458104985287250e+02 0 0 0
2088 60 2 0.0000000000000000e+00 -5.7645697517238183e+01 -4.1333720899324028e+01 -1.3350300166909062e+02 0 0 0
2089 60 2 0.0000000000000000e+00 -5.4445184005214173e+01 -4.8802506827156236e+01 -1.3976294587319600e+02 0 0 0
1638 47 2 0.0000000000000000e+00 -1.7386782682044576e+01 -5.0548338858611316e+01 -1.4220352919963580e+02 0 0 0
4746 136 4 0.0000000000000000e+00 -9.2526995197762830e+01 -3.3945689399162440e+01 -1.4469702080507767e+02 0 0 0
4747 136 4 0.0000000000000000e+00 -9.2665918556863986e+01 -3.8825906767662602e+01 -1.3617518283013902e+02 0 0 0
1629 47 2 0.0000000000000000e+00 -6.2394025156511191e+01 -3.0509977682049826e+01 -1.4376849143752469e+02 0 0 0
1628 47 1 0.0000000000000000e+00 -5.6553272863189491e+01 -2.5702268538802844e+01 -1.3835181243318581e+02 0 0 0
1627 47 2 0.0000000000000000e+00 -4.8594924982988609e+01 -2.8830775670338600e+01 -1.4326178508335192e+02 0 0 0
3022 87 2 0.0000000000000000e+00 -3.0943749890060214e+01 -2.8231777216597663e+01 -1.3756401677051099e+02 0 0 0
3024 87 2 0.0000000000000000e+00 -1.5385874230741244e+01 -3.6650313478027265e+01 -1.4082590595504522e+02 0 0 0
3023 87 2 0.0000000000000000e+00 -2.4122455313571212e+01 -3.5498164988548126e+01 -1.3560764479842499e+02 0 0 0
1621 47 1 0.0000000000000000e+00 -2.3844885078227186e+01 -2.8636852052877735e+01 -1.4499475013403901e+02 0 0 0
5539 159 4 0.0000000000000000e+00 -8.0130658556865384e+01 -1.3437949252287360e+01 -1.3283378878078392e+02 0 0 0
3020 87 2 0.0000000000000000e+00 -4.2202416240927136e+01 -1.5291700373724870e+01 -1.4541246855555633e+02 0 0 0
3021 87 1 0.0000000000000000e+00 -3.6760741475222495e+01 -2.0183455248249007e+01 -1.3832148525514413e+02 0 0 0
1620 47 2 0.0000000000000000e+00 -2.3527323423662164e+01 -2.0789542621187277e+01 -1.3884088223820478e+02 0 0 0
1619 47 2 0.0000000000000000e+00 -1.5811362285472983e+01 -1.9241409635949022e+01 -1.3240073198964046e+02 0 0 0
2076 60 1 0.0000000000000000e+00 -1.0111506403084978e+02 6.2971961032508150e-01 -1.4392034956690165e+02 0 0 0
2077 60 2 0.0000000000000000e+00 -9.5933530108838212e+01 -4.3930646661222745e+00 -1.3651618782047882e+02 0 0 0
5538 159 4 0.0000000000000000e+00 -8.2848994821968958e+01 -8.0067501952449298e+00 -1.4023937157511662e+02 0 0 0
6314 181 4 0.0000000000000000e+00 -7.5374842758367251e+01 -1.2384626914804764e-01 -1.3549208254204217e+02 0 0 0
6315 181 4 0.0000000000000000e+00 -6.5813466637755283e+01 -1.4008288420017097e+00 -1.3266166486530580e+02 0 0 0
6313 181 4 0.0000000000000000e+00 -8.3117373167659693e+01 5.3712580644558763e+00 -1.3658142186990415e+02 0 0 0
6312 181 4 0.0000000000000000e+00 -8.9622464093147499e+01 5.9476377061761747e+00 -1.4444642270861300e+02 0 0 0
3015 87 2 0.0000000000000000e+00 -7.4303623243643628e+01 1.3044143725497749e+01 -1.4448467475107284e+02 0 0 0
6336 182 4 0.0000000000000000e+00 -1.6675113331460085e+02 1.7641585414287107e+01 -1.4247793840863932e+02 0 0 0
6337 182 4 0.0000000000000000e+00 -1.5709045319923302e+02 2.0649191565960638e+01 -1.4277647969678017e+02 0 0 0
3012 87 2 0.0000000000000000e+00 -9.4620448571992924e+01 2.1494800138541152e+01 -1.3500278384235241e+02 0 0 0
3014 87 1 0.0000000000000000e+00 -7.7797079101118683e+01 2.0129075811229253e+01 -1.3865874269573519e+02 0 0 0
4199 120 4 0.0000000000000000e+00 -8.5563831515147228e+01 -1.0558529054078875e+02 -1.3119411421310613e+02 0 0 0
4198 120 4 0.0000000000000000e+00 -8.5013891151090519e+01 -1.0520064905699959e+02 -1.2126174249342549e+02 0 0 0
1370 40 2 0.0000000000000000e+00 -8.6085019246099790e+01 -9.5072981403780204e+01 -1.2442216898009555e+02 0 0 0
1369 40 1 0.0000000000000000e+00 -7.6385020104344903e+01 -9.8119175927978759e+01 -1.2052783417642976e+02 0 0 0
1368 40 2 0.0000000000000000e+00 -6.8135784180441249e+01 -9.4819104107490801e+01 -1.2561312388993532e+02 0 0 0
5434 156 4 0.0000000000000000e+00 -2.3049364718057376e+01 -8.4471777237661016e+01 -1.3113869431375514e+02 0 0 0
6499 186 4 0.0000000000000000e+00 -9.3723441975446320e+01 -7.0917730139534058e+01 -1.2523509167829317e+02 0 0 0
6500 186 3 0.0000000000000000e+00 -8.4264129485265144e+01 -6.8835703432280113e+01 -1.2788880697002254e+02 0 0 0
1381 40 2 0.0000000000000000e+00 -5.8282112070618062e+01 -7.6462647355466757e+01 -1.2324559147155391e+02 0 0 0
1380 40 2 0.0000000000000000e+00 -6.0355465342456618e+01 -6.7970084255479193e+01 -1.2913008069086408e+02 0 0 0
2097 60 1 0.0000000000000000e+00 -9.0721990147793292e+01 -5.3028062023627676e+01 -1.2607328813999888e+02 0 0 0
2216 64 1 0.0000000000000000e+00 -7.8033871649200847e+01 -5.9849411374938335e+01 -1.3074456595274216e+02 0 0 0
2215 64 2 0.0000000000000000e+00 -7.4283026357267730e+01 -5.3845954093788265e+01 -1.2320141106254320e+02 0 0 0
6328 181 4 0.0000000000000000e+00 -4.7706714466353120e+01 -6.5523809138159407e+01 -1.3057287485637818e+02 0 0 0
6327 181 4 0.0000000000000000e+00 -4.1102884175961243e+01 -6.2483854966312599e+01 -1.2366060100000459e+02 0 0 0
6326 181 4 0.0000000000000000e+00 -3.2730576901999108e+01 -5.8510342543829928e+01 -1.1963834531240708e+02 0 0 0
2522 73 2 0.0000000000000000e+00 -1.4048754200316162e+02 -4.0626402575382656e+01 -1.2033496513370484e+02 0 0 0
2521 73 2 0.0000000000000000e+00 -1.3588334150478246e+02 -4.0465559403570268e+01 -1.2868397138360243e+02 0 0 0
4748 136 4 0.0000000000000000e+00 -8.7957348495912726e+01 -3.9627888574253362e+01 -1.2707261809597131e+02 0 0 0
6515 187 4 0.0000000000000000e+00 -8.0089654787963724e+01 -4.6053718406173047e+01 -1.2717521974109317e+02 0 0 0
2212 64 2 0.0000000000000000e+00 -5.1268595303734834e+01 -4.3964041007842738e+01 -1.1950418887397356e+02 0 0 0
4544 130 4 0.0000000000000000e+00 -2.6444609138002793e+01 -4.2693155960982196e+01 -1.2444519493528243e+02 0 0 0
4543 130 4 0.0000000000000000e+00 -2.1785221548773364e+01 -5.0976804954192666e+01 -1.2665403268125191e+02 0 0 0
4749 136 4 0.0000000000000000e+00 -8.2612429599382381e+01 -3.3534946722207124e+01 -1.2127561864088857e+02 0 0 0
5542 159 4 0.0000000000000000e+00 -7.0167649670008515e+01 -2.8992203273671386e+01 -1.3190002105489825e+02 0 0 0
5543 159 4 0.0000000000000000e+00 -6.5830297920265210e+01 -3.6890416938933171e+01 -1.2645768826576139e+02 0 0 0
2086 60 2 0.0000000000000000e+00 -5.5449316662443941e+01 -2.8807611599100174e+01 -1.2276068457677499e+02 0 0 0
2087 60 2 0.0000000000000000e+00 -5.3039130508727460e+01 -3.2353113653816202e+01 -1.3200876577050823e+02 0 0 0
6319 181 4 0.0000000000000000e+00 -4.2018409632246282e+01 -2.6496512923660738e+01 -1.2717812701457957e+02 0 0 0
6320 181 4 0.0000000000000000e+00 -3.8536490209977082e+01 -3.1708690392431581e+01 -1.1981330839323093e+02 0 0 0
4545 130 4 0.0000000000000000e+00 -2.7807758642262666e+01 -3.2675486677832708e+01 -1.2633211483119234e+02 0 0 0
5540 159 4 0.0000000000000000e+00 -7.1488577737973060e+01 -1.6525857101330441e+01 -1.2751570508555865e+02 0 0 0
5541 159 3 0.0000000000000000e+00 -6.3991274691306074e+01 -2.1685253923904760e+01 -1.3046897325466202e+02 0 0 0
6317 181 4 0.0000000000000000e+00 -5.7058620444685772e+01 -1.5410366687304178e+01 -1.2162460538023286e+02 0 0 0
6318 181 3 0.0000000000000000e+00 -4.7956533171338208e+01 -1.8484701970678348e+01 -1.2455579384236144e+02 0 0 0
4546 130 4 0.0000000000000000e+00 -3.0693419016236867e+01 -2.3198641584077922e+01 -1.2854745650447973e+02 0 0 0
4547 130 3 0.0000000000000000e+00 -3.1874146429511519e+01 -1.3846637711240295e+01 -1.3007877600525015e+02 0 0 0
1532 44 2 0.0000000000000000e+00 -1.7201247560538224e+01 -1.4407599117040435e+01 -1.2001233335296534e+02 0 0 0
2078 60 2 0.0000000000000000e+00 -9.1536513295274347e+01 -3.4412933991315589e+00 -1.2750337416367219e+02 0 0 0
6316 181 4 0.0000000000000000e+00 -6.0377345493098964e+01 -7.0322791667095172e+00 -1.2660857265289567e+02 0 0 0
2912 84 2 0.0000000000000000e+00 -6.7843295347377676e+01 -4.2072422810592025e+00 -1.1908381029969371e+02 0 0 0
4549 130 4 0.0000000000000000e+00 -2.8659010352675171e+01 -9.2000228592246147e-01 -1.3032002648349223e+02 0 0 0
4548 130 4 0.0000000000000000e+00 -3.7471371660794347e+01 -5.6055989167690834e+00 -1.2997487204680317e+02 0 0 0
4550 130 4 0.0000000000000000e+00 -1.9496153362151478e+01 -5.1199838364303014e+00 -1.2911697043621052e+02 0 0 0
3013 87 2 0.0000000000000000e+00 -8.4563848410979560e+01 2.2081599326647726e+01 -1.3192438302934141e+02 0 0 0
3201 92 2 0.0000000000000000e+00 -4.9751989369304304e+01 2.8261903260159208e+01 -1.2486914234636204e+02 0 0 0
3200 92 2 0.0000000000000000e+00 -4.1914663262544423e+01 2.2286857736129402e+01 -1.2367901216437565e+02 0 0 0
5131 147 4 0.0000000000000000e+00 -3.1752826691099227e+01 2.3498078980998905e+01 -1.2661902396764491e+02 0 0 0
5121 147 3 0.0000000000000000e+00 -2.0015308042665755e+01 2.4449988409818481e+01 -1.1987716787984463e+02 0 0 0
2812 81 2 0.0000000000000000e+00 -2.9242530953482856e+01 -1.4615688759257162e+02 -1.0522771439602845e+02 0 0 0
2811 81 1 0.0000000000000000e+00 -1.9605608635103646e+01 -1.4357841401522032e+02 -1.0681718066112553e+02 0 0 0
4197 120 3 0.0000000000000000e+00 -8.5208225529678046e+01 -9.8589385355998616e+01 -1.1336771699755235e+02 0 0 0
1382 40 2 0.0000000000000000e+00 -5.9469619150747825e+01 -8.2439380985360131e+01 -1.1489713749364543e+02 0 0 0
6498 186 4 0.0000000000000000e+00 -1.0049985644006077e+02 -7.0436992449598733e+01 -1.1831226954347918e+02 0 0 0
6497 186 4 0.0000000000000000e+00 -1.0662201552905941e+02 -6.9219544967100845e+01 -1.1039374015238783e+02 0 0 0
1383 40 1 0.0000000000000000e+00 -5.8826889551712078e+01 -7.4170243491061754e+01 -1.0894804308480416e+02 0 0 0
6496 186 4 0.0000000000000000e+00 -1.1214203045483971e+02 -6.0719122836807891e+01 -1.0905394233140740e+02 0 0 0
6495 186 4 0.0000000000000000e+00 -1.1993951964350018e+02 -5.5955986559033569e+01 -1.0600986961493993e+02 0 0 0
2099 60 2 0.0000000000000000e+00 -9.8547403664289092e+01 -5.3644004296229973e+01 -1.0800548423332533e+02 0 0 0
2098 60 2 0.0000000000000000e+00 -9.4709841124693313e+01 -5.3859499238944871e+01 -1.1728433791306564e+02 0 0 0
2214 64 2 0.0000000000000000e+00 -6.6274218141569506e+01 -5.5699674247122964e+01 -1.1762824333230994e+02 0 0 0
5546 159 4 0.0000000000000000e+00 -6.2166007648470362e+01 -5.2637930814076249e+01 -1.0595683956255695e+02 0 0 0
6325 181 3 0.0000000000000000e+00 -2.5072940203200517e+01 -6.3760060568832948e+01 -1.1582336698607703e+02 0 0 0
6324 181 4 0.0000000000000000e+00 -2.2735117769202137e+01 -6.0016103839224996e+01 -1.0643507983691534e+02 0 0 0
6516 187 4 0.0000000000000000e+00 -7.8408412820852561e+01 -4.2706587865069089e+01 -1.1728414748217125e+02 0 0 0
5545 159 4 0.0000000000000000e+00 -6.9605188305093023e+01 -4.8852837874264715e+01 -1.1092796334611332e+02 0 0 0
6517 187 4 0.0000000000000000e+00 -7.4668283734801108e+01 -3.9914649189437291e+01 -1.0830232508570401e+02 0 0 0
2213 64 2 0.0000000000000000e+00 -5.7609584034263975e+01 -5.0961915904818916e+01 -1.1720044184444635e+02 0 0 0
5544 159 4 0.0000000000000000e+00 -6.6991345274588042e+01 -4.2904214699586248e+01 -1.1864281053396878e+02 0 0 0
6321 181 4 0.0000000000000000e+00 -4.0151101288011482e+01 -4.0981020322633590e+01 -1.1649066869867995e+02 0 0 0
6322 181 4 0.0000000000000000e+00 -3.2102173060870740e+01 -4.6752272835284387e+01 -1.1727620961777376e+02 0 0 0
6323 181 4 0.0000000000000000e+00 -2.6506853644426847e+01 -5.2123005190799581e+01 -1.1131564332602817e+02 0 0 0
1536 44 2 0.0000000000000000e+00 -1.5100284439807798e+01 -5.0796580359985569e+01 -1.1354704787225444e+02 0 0 0
1535 44 2 0.0000000000000000e+00 -1.7503804058397371e+01 -4.1550900024676459e+01 -1.1155548072491877e+02 0 0 0
2523 73 2 0.0000000000000000e+00 -1.3795047216809235e+02 -3.4718338067244609e+01 -1.1266801806794793e+02 0 0 0
2524 73 1 0.0000000000000000e+00 -1.2948837942575639e+02 -3.3140080201069310e+01 -1.0604386004634740e+02 0 0 0
2544 73 2 0.0000000000000000e+00 -1.0472108749865106e+02 -3.8224145836131385e+01 -1.0660739267925619e+02 0 0 0
4750 136 3 0.0000000000000000e+00 -8.3055874809677562e+01 -3.4691065444115999e+01 -1.1127822342746222e+02 0 0 0
2084 60 2 0.0000000000000000e+00 -7.3234719972819519e+01 -2.7281007689362330e+01 -1.1459771067811995e+02 0 0 0
2085 60 2 0.0000000000000000e+00 -6.3365893264648250e+01 -2.8032158476375123e+01 -1.1637204625978231e+02 0 0 0
2211 64 2 0.0000000000000000e+00 -5.4051576189914044e+01 -3.5721557150684497e+01 -1.1555446334481181e+02 0 0 0
2210 64 2 0.0000000000000000e+00 -5.3642236046585047e+01 -2.5730400720525513e+01 -1.1337839471863833e+02 0 0 0
6545 187 4 0.0000000000000000e+00 -3.1405815168721091e+01 -2.5727148132249631e+01 -1.1282113598030941e+02 0 0 0
1534 44 2 0.0000000000000000e+00 -2.1645260757866787e+01 -3.2115402106602168e+01 -1.1353442256810513e+02 0 0 0
2546 73 2 0.0000000000000000e+00 -1.1057267173340256e+02 -2.0125603945756691e+01 -1.0850598473409704e+02 0 0 0
2080 60 2 0.0000000000000000e+00 -8.9980635799197998e+01 -1.2053100255633618e+01 -1.1199986267020722e+02 0 0 0
2083 60 1 0.0000000000000000e+00 -8.1560236285934081e+01 -2.3953148535719244e+01 -1.1007900359617996e+02 0 0 0
2209 64 1 0.0000000000000000e+00 -4.4696749852692584e+01 -2.0803672371789869e+01 -1.1388130137036352e+02 0 0 0
6544 187 4 0.0000000000000000e+00 -3.2282733728075705e+01 -1.8549757286316080e+01 -1.0655468245709717e+02 0 0 0
5767 165 4 0.0000000000000000e+00 -1.8239645412056884e+01 -2.2634705314519657e+01 -1.0552702544011197e+02 0 0 0
1533 44 2 0.0000000000000000e+00 -1.8795262167237613e+01 -2.3666559126415212e+01 -1.1808167487582527e+02 0 0 0
6299 180 4 0.0000000000000000e+00 -1.7274074294091898e+02 -3.7331795598774722e+00 -1.1158989335958918e+02 0 0 0
1716 50 2 0.0000000000000000e+00 -1.2845725024350364e+02 -2.9427068989159220e+00 -1.0672468423864940e+02 0 0 0
2079 60 2 0.0000000000000000e+00 -9.2189922947380055e+01 -4.3523795284402853e+00 -1.1764100134571210e+02 0 0 0
2914 84 2 0.0000000000000000e+00 -8.3266089057568863e+01 -3.9086410358909007e+00 -1.0600099486710525e+02 0 0 0
2913 84 2 0.0000000000000000e+00 -7.6504398907045399e+01 -3.3969209176727957e+00 -1.1374292137687573e+02 0 0 0
2911 84 2 0.0000000000000000e+00 -5.8442452218216197e+01 -5.7553027900661800e+00 -1.1536825245995711e+02 0 0 0
2910 84 2 0.0000000000000000e+00 -5.4908805105946833e+01 -1.1960378614911267e+01 -1.0880522524239080e+02 0 0 0
2208 64 2 0.0000000000000000e+00 -3.9725281154684581e+01 -1.1687304751121486e+01 -1.1181715854642850e+02 0 0 0
2207 64 2 0.0000000000000000e+00 -3.6809575688758457e+01 -1.6784471874937577e+00 -1.1038392787934471e+02 0 0 0