LAMMPS data file via write_data, version 5 Jun 2019, timestep = 400000000

7000 atoms
4 atom types
7288 bonds
3 bond types
6600 angles
2 angle types

-5.0000000000000000e+02 5.0000000000000000e+02 xlo xhi
-5.0000000000000000e+02 5.0000000000000000e+02 ylo yhi
-5.0000000000000000e+02 5.0000000000000000e+02 zlo zhi

Masses

1 1000
2 1000
3 1000
4 1000

Pair Coeffs # lj/cut

1 0.178 10
2 0.178 10
3 0.178 10
4 0.178 10

Angle Coeffs # cosine

1 2
2 2

Atoms # full

4445 127 4 0.0000000000000000e+00 -7.2345238882036725e+01 -1.0067871342775414e+01 -2.0433245650132648e+02 0 0 0
4444 127 4 0.0000000000000000e+00 -6.8434460421995567e+01 -1.3629826657813640e+01 -1.9633488487348129e+02 0 0 0
2234 64 2 0.0000000000000000e+00 -8.4480747510108131e+01 -3.4502604212544178e+01 -1.8401671911810061e+02 0 0 0
2227 64 2 0.0000000000000000e+00 -6.0266370710374346e+01 -4.1186658710521371e+01 -1.8337944668256756e+02 0 0 0
2228 64 2 0.0000000000000000e+00 -5.2747489563044219e+01 -3.5240170581833041e+01 -1.8661444551656021e+02 0 0 0
2233 64 2 0.0000000000000000e+00 -7.8354763204944589e+01 -2.7147809343975368e+01 -1.8329530664286224e+02 0 0 0
4443 127 4 0.0000000000000000e+00 -6.0659587296102266e+01 -1.7766865332748022e+01 -1.9129370056735743e+02 0 0 0
2232 64 2 0.0000000000000000e+00 -7.0354728657485865e+01 -2.1816346230325525e+01 -1.8087567113047885e+02 0 0 0
2229 64 2 0.0000000000000000e+00 -5.1039272315738650e+01 -2.5019302289294512e+01 -1.8537403656340089e+02 0 0 0
4442 127 3 0.0000000000000000e+00 -5.2146562362889654e+01 -1.3211023706340601e+01 -1.8917732711152885e+02 0 0 0
4441 127 4 0.0000000000000000e+00 -4.5053131383625107e+01 -7.7816622514363027e+00 -1.8767189973598326e+02 0 0 0
4440 127 4 0.0000000000000000e+00 -3.8711327850584880e+01 -7.7477649729714770e-01 -1.8503602599049790e+02 0 0 0
4439 127 4 0.0000000000000000e+00 -3.1005111543403761e+01 5.6997532941778148e+00 -1.8748235750160671e+02 0 0 0
4438 127 4 0.0000000000000000e+00 -2.1851494522942442e+01 1.0083383463024804e+01 -1.8750746266594538e+02 0 0 0
4437 127 4 0.0000000000000000e+00 -1.8035108186615467e+01 1.8433299426181925e+01 -1.8306048084268500e+02 0 0 0
2225 64 2 0.0000000000000000e+00 -6.2910444652121342e+01 -5.4747455073692343e+01 -1.6986383482585387e+02 0 0 0
2226 64 2 0.0000000000000000e+00 -6.2797456215265008e+01 -4.5915557299632141e+01 -1.7555010280262286e+02 0 0 0
2235 64 2 0.0000000000000000e+00 -8.9959577663842580e+01 -3.7916004745271700e+01 -1.7670327590453826e+02 0 0 0
2231 64 2 0.0000000000000000e+00 -6.1012951017407580e+01 -1.7717691413129479e+01 -1.8021156961080564e+02 0 0 0
2230 64 1 0.0000000000000000e+00 -5.0929900869623069e+01 -1.7395498595227433e+01 -1.7869203195822897e+02 0 0 0
1626 47 2 0.0000000000000000e+00 -6.6463871420219149e+01 -1.1376125458785419e+01 -1.6790375178745924e+02 0 0 0
1625 47 2 0.0000000000000000e+00 -5.6538429631627928e+01 -1.1352284009075591e+01 -1.6913354403431435e+02 0 0 0
5537 159 4 0.0000000000000000e+00 -7.9483253989014244e+01 7.1083486627395480e+00 -1.6815141016750621e+02 0 0 0
3015 87 2 0.0000000000000000e+00 -2.8059063852704124e+01 7.2745876826108660e+00 -1.7322534237420314e+02 0 0 0
5536 159 4 0.0000000000000000e+00 -8.4256215134833397e+01 1.5380411572984933e+01 -1.7097280590663007e+02 0 0 0
5535 159 4 0.0000000000000000e+00 -7.5780017855494080e+01 1.7397422046727637e+01 -1.6687808880843940e+02 0 0 0
3014 87 1 0.0000000000000000e+00 -3.2971658872082031e+01 1.5978768851816396e+01 -1.7427337711678857e+02 0 0 0
3013 87 2 0.0000000000000000e+00 -4.1200145282426561e+01 1.6924805256726170e+01 -1.6894259474845629e+02 0 0 0
4436 127 4 0.0000000000000000e+00 -1.9926401788518255e+01 2.1966710417643412e+01 -1.7481819274126229e+02 0 0 0
1373 40 2 0.0000000000000000e+00 -8.8543464078239822e+01 -7.4717960573156660e+01 -1.5672424368891805e+02 0 0 0
6510 186 4 0.0000000000000000e+00 -3.3990420198616057e+01 -7.9177513478230466e+01 -1.6122616414755845e+02 0 0 0
6509 186 4 0.0000000000000000e+00 -4.1963939359800094e+01 -7.3137386597990428e+01 -1.5958534652433235e+02 0 0 0
1374 40 2 0.0000000000000000e+00 -8.4172694980399399e+01 -6.7095910402267180e+01 -1.5297200278394124e+02 0 0 0
4742 136 4 0.0000000000000000e+00 -8.1215725467280620e+01 -4.5385344918231432e+01 -1.5322666293284630e+02 0 0 0
2224 64 2 0.0000000000000000e+00 -6.3505308262403936e+01 -5.5113856991371222e+01 -1.5997317518847188e+02 0 0 0
4740 136 4 0.0000000000000000e+00 -6.1144470018910816e+01 -4.5914299630332145e+01 -1.5596486724917207e+02 0 0 0
4733 136 4 0.0000000000000000e+00 -1.2778445198905789e+01 -5.1725181948392802e+01 -1.5588631315791943e+02 0 0 0
3640 104 4 0.0000000000000000e+00 -4.4129091627335031e+00 -5.5720312919307688e+01 -1.6515082337754575e+02 0 0 0
2236 64 2 0.0000000000000000e+00 -8.8958805508214169e+01 -3.7645100413408493e+01 -1.6639304428934594e+02 0 0 0
4743 136 3 0.0000000000000000e+00 -9.0815512270967488e+01 -4.3577598180932156e+01 -1.5534243149505377e+02 0 0 0
2237 64 1 0.0000000000000000e+00 -9.6855224894652650e+01 -3.5400288505466719e+01 -1.6088351340363738e+02 0 0 0
4741 136 4 0.0000000000000000e+00 -7.1012195861268054e+01 -4.4722437727721996e+01 -1.5554912409256869e+02 0 0 0
1631 47 2 0.0000000000000000e+00 -6.1387764024068375e+01 -3.4523461253188678e+01 -1.5319561277866353e+02 0 0 0
4739 136 4 0.0000000000000000e+00 -5.4672075219836685e+01 -3.9888899715044623e+01 -1.6162038044187105e+02 0 0 0
4738 136 4 0.0000000000000000e+00 -4.5498767647733864e+01 -3.4564745696953693e+01 -1.6207582053190919e+02 0 0 0
4737 136 4 0.0000000000000000e+00 -3.5635644465690227e+01 -3.4439819426020968e+01 -1.5833403730454731e+02 0 0 0
4736 136 3 0.0000000000000000e+00 -2.5146246311854604e+01 -3.3279260311619076e+01 -1.5861344565846022e+02 0 0 0
3022 87 2 0.0000000000000000e+00 -5.3542978887769372e+00 -3.2442889585362700e+01 -1.5423688606897736e+02 0 0 0
2240 64 2 0.0000000000000000e+00 -1.0760514685550129e+02 -2.0684912077539039e+01 -1.5639866179000330e+02 0 0 0
2239 64 2 0.0000000000000000e+00 -9.8138125870850914e+01 -1.8859335416921933e+01 -1.5976892147561313e+02 0 0 0
2238 64 2 0.0000000000000000e+00 -9.4158220964922677e+01 -2.6835811575806723e+01 -1.5653961770192382e+02 0 0 0
2093 60 2 0.0000000000000000e+00 -8.3660594959018709e+01 -2.8514801916322554e+01 -1.5559731929345961e+02 0 0 0
1629 47 2 0.0000000000000000e+00 -7.5908252585538392e+01 -2.2462934625182022e+01 -1.5873746942805076e+02 0 0 0
1630 47 2 0.0000000000000000e+00 -6.9153201306311360e+01 -2.9518857487899279e+01 -1.5725643061110489e+02 0 0 0
5427 156 4 0.0000000000000000e+00 -5.4480521762813737e+01 -2.4098661257439236e+01 -1.5480179074714667e+02 0 0 0
5426 156 4 0.0000000000000000e+00 -4.4875746938382051e+01 -2.6120721082510670e+01 -1.5784543348804823e+02 0 0 0
1622 47 2 0.0000000000000000e+00 -3.8761742522615187e+01 -2.0646229004002269e+01 -1.5367549055179941e+02 0 0 0
1621 47 1 0.0000000000000000e+00 -2.9692962155908724e+01 -2.3180408153020679e+01 -1.5533628449787406e+02 0 0 0
1620 47 2 0.0000000000000000e+00 -2.0307458231506622e+01 -2.1767704140479861e+01 -1.5394751455933417e+02 0 0 0
1619 47 2 0.0000000000000000e+00 -1.1295902411191067e+01 -2.3172217124040138e+01 -1.5599708424531082e+02 0 0 0
2555 73 2 0.0000000000000000e+00 -1.6455641489025422e+02 -1.6888727789568346e+01 -1.5330221099379085e+02 0 0 0
5539 159 4 0.0000000000000000e+00 -8.7196214115758522e+01 -6.0259789213325865e+00 -1.5841457511669714e+02 0 0 0
5540 159 4 0.0000000000000000e+00 -9.1431179883588371e+01 -1.4305285892708083e+01 -1.5474082797031033e+02 0 0 0
1628 47 1 0.0000000000000000e+00 -8.0827063710066568e+01 -1.3989782888655530e+01 -1.5768748143436162e+02 0 0 0
1627 47 2 0.0000000000000000e+00 -7.5178641144149282e+01 -9.0347478305879587e+00 -1.6471976002044377e+02 0 0 0
1624 47 2 0.0000000000000000e+00 -4.6955099497475871e+01 -1.0701939035156338e+01 -1.6590326890818895e+02 0 0 0
1623 47 2 0.0000000000000000e+00 -3.7949742401051004e+01 -1.3886812566889894e+01 -1.6158104387636263e+02 0 0 0
2074 60 2 0.0000000000000000e+00 -1.0792286249420899e+02 4.2236162905101686e+00 -1.5791611611622892e+02 0 0 0
5538 159 4 0.0000000000000000e+00 -8.2513370513524535e+01 -1.8670078572992652e+00 -1.6591237707274766e+02 0 0 0
2208 64 2 0.0000000000000000e+00 -7.8184135553913407e+01 7.6104673644601775e+00 -1.5304476388749848e+02 0 0 0
3016 87 2 0.0000000000000000e+00 -2.7361984945474454e+01 3.0396730611100797e+00 -1.6399661362247218e+02 0 0 0
3017 87 2 0.0000000000000000e+00 -2.1989308054291602e+01 -7.0963099667601237e-01 -1.5675252142069277e+02 0 0 0
2075 60 2 0.0000000000000000e+00 -1.0504609741300291e+02 1.4616554193221427e+01 -1.5662280104879321e+02 0 0 0
2207 64 2 0.0000000000000000e+00 -7.1244241733356006e+01 1.0563138053848192e+01 -1.5905005776778867e+02 0 0 0
3012 87 2 0.0000000000000000e+00 -4.5816314064597286e+01 2.3645271478058586e+01 -1.6302987190258463e+02 0 0 0
1372 40 2 0.0000000000000000e+00 -8.9229244896804346e+01 -7.9690817352611191e+01 -1.4856103096813550e+02 0 0 0
1371 40 2 0.0000000000000000e+00 -8.6565070882695196e+01 -8.4438586974344133e+01 -1.3989155609117455e+02 0 0 0
6505 186 4 0.0000000000000000e+00 -6.6012305815948764e+01 -7.2535093922234253e+01 -1.4272805143452436e+02 0 0 0
2626 76 2 0.0000000000000000e+00 -4.8591329998744818e+01 -7.9509700064355997e+01 -1.4338930982078344e+02 0 0 0
2627 76 2 0.0000000000000000e+00 -3.8303188243818674e+01 -7.7978056589612052e+01 -1.4250108421298663e+02 0 0 0
5436 156 3 0.0000000000000000e+00 -2.1852680123172448e+01 -7.7209683515053158e+01 -1.4062956112859337e+02 0 0 0
6335 181 4 0.0000000000000000e+00 -1.0881903616476511e+02 -6.3166721541542195e+01 -1.4611418557536621e+02 0 0 0
6334 181 4 0.0000000000000000e+00 -9.9539179323520841e+01 -6.1515126598859183e+01 -1.4189989313761677e+02 0 0 0
2221 64 2 0.0000000000000000e+00 -7.6313699552048035e+01 -6.8102050707458673e+01 -1.4550566361686748e+02 0 0 0
1376 40 1 0.0000000000000000e+00 -7.5117721927284592e+01 -5.9058588845406277e+01 -1.4027218786885092e+02 0 0 0
1375 40 2 0.0000000000000000e+00 -8.1238756895247434e+01 -5.9086420555334151e+01 -1.4785779852962139e+02 0 0 0
2222 64 2 0.0000000000000000e+00 -6.8414770980135941e+01 -6.3311585258367224e+01 -1.4857403325414759e+02 0 0 0
6506 186 4 0.0000000000000000e+00 -5.7514661133423360e+01 -6.7599933158080077e+01 -1.4378411061065910e+02 0 0 0
6507 186 3 0.0000000000000000e+00 -5.0195809184461595e+01 -6.1301890875437351e+01 -1.4725716039483476e+02 0 0 0
6508 186 4 0.0000000000000000e+00 -4.3381848275622403e+01 -6.6882321254259352e+01 -1.5200873893629145e+02 0 0 0
4731 136 4 0.0000000000000000e+00 -8.1606292796904043e+00 -6.1422662642606333e+01 -1.4801815974322250e+02 0 0 0
4744 136 4 0.0000000000000000e+00 -9.9229243310462479e+01 -4.6734857637896710e+01 -1.5073919721521173e+02 0 0 0
6333 181 4 0.0000000000000000e+00 -9.3638120506865917e+01 -5.3331316892656993e+01 -1.4217629387561976e+02 0 0 0
6332 181 3 0.0000000000000000e+00 -8.4048478135943938e+01 -5.2137176203246646e+01 -1.3970863680335128e+02 0 0 0
2223 64 1 0.0000000000000000e+00 -6.0437919465840871e+01 -5.8333671748178510e+01 -1.5119141898793390e+02 0 0 0
5431 156 4 0.0000000000000000e+00 -5.5033863533508793e+01 -5.2037243710089399e+01 -1.4049541284312787e+02 0 0 0
4729 136 3 0.0000000000000000e+00 -2.0064375283851422e+01 -4.9323541213724695e+01 -1.3909615611862984e+02 0 0 0
1635 47 1 0.0000000000000000e+00 -3.0726144302151610e+01 -4.8321530706449060e+01 -1.3917379189409979e+02 0 0 0
4730 136 4 0.0000000000000000e+00 -1.4955352376279167e+01 -5.7021031488506843e+01 -1.4232008759864061e+02 0 0 0
4745 136 4 0.0000000000000000e+00 -1.0158752637871308e+02 -4.2823520851022650e+01 -1.4129348419047315e+02 0 0 0
2094 60 2 0.0000000000000000e+00 -8.9721101910831507e+01 -3.3077779418501819e+01 -1.4951395046593669e+02 0 0 0
2095 60 2 0.0000000000000000e+00 -9.2566294058359034e+01 -3.7936125501134057e+01 -1.4093532097086145e+02 0 0 0
2091 60 2 0.0000000000000000e+00 -7.0536638174587267e+01 -3.4346810207665072e+01 -1.4175626959650839e+02 0 0 0
1632 47 2 0.0000000000000000e+00 -5.1759822179035723e+01 -3.4934945522167276e+01 -1.5242093213799049e+02 0 0 0
5430 156 4 0.0000000000000000e+00 -5.6692442228144415e+01 -4.2873216960060645e+01 -1.4322324735009744e+02 0 0 0
5429 156 3 0.0000000000000000e+00 -5.6730625080365684e+01 -3.2401652787775696e+01 -1.4457039316248398e+02 0 0 0
1633 47 2 0.0000000000000000e+00 -4.2617580772946738e+01 -3.6363484667320080e+01 -1.4915292996430995e+02 0 0 0
1634 47 2 0.0000000000000000e+00 -3.6787185634270848e+01 -4.2600067442084232e+01 -1.4460894906793990e+02 0 0 0
4728 136 4 0.0000000000000000e+00 -2.3788788705810695e+01 -3.9423759680201726e+01 -1.4054350757359575e+02 0 0 0
4735 136 4 0.0000000000000000e+00 -1.6856998514075304e+01 -3.4024021852609572e+01 -1.5209096667597919e+02 0 0 0
4734 136 4 0.0000000000000000e+00 -1.2262899701821729e+01 -4.2891234892232262e+01 -1.5247542999403055e+02 0 0 0
2092 60 2 0.0000000000000000e+00 -7.6719308595959475e+01 -3.0809169623863937e+01 -1.4903403805160349e+02 0 0 0
5542 159 4 0.0000000000000000e+00 -7.8233830859600104e+01 -1.7188575847376129e+01 -1.4076523482990677e+02 0 0 0
5428 156 4 0.0000000000000000e+00 -6.1175185929880072e+01 -2.4061566607847190e+01 -1.4799204718346579e+02 0 0 0
4726 136 4 0.0000000000000000e+00 -3.3873675973874022e+01 -2.1767668357691960e+01 -1.4030989572871894e+02 0 0 0
4727 136 4 0.0000000000000000e+00 -2.8957599822839175e+01 -3.0855878331666908e+01 -1.3990975953290800e+02 0 0 0
3021 87 1 0.0000000000000000e+00 -4.2187968239883791e+00 -2.3702525446788602e+01 -1.4921755379532399e+02 0 0 0
2554 73 2 0.0000000000000000e+00 -1.5493565776189391e+02 -1.7089369683189382e+01 -1.5068183852048750e+02 0 0 0
2553 73 2 0.0000000000000000e+00 -1.4969069174820979e+02 -1.4595234280991168e+01 -1.4290960828469295e+02 0 0 0
5541 159 3 0.0000000000000000e+00 -8.5295655101574312e+01 -1.5549782218808229e+01 -1.4802128847495553e+02 0 0 0
2211 64 2 0.0000000000000000e+00 -6.2526049451255417e+01 -8.6750232364540611e+00 -1.4025857501583110e+02 0 0 0
1534 44 2 0.0000000000000000e+00 -4.4140443352055641e+01 -1.2784898433816487e+01 -1.4680210189469980e+02 0 0 0
1533 44 2 0.0000000000000000e+00 -3.4416959829018928e+01 -1.5147743052447183e+01 -1.4534758285809812e+02 0 0 0
1532 44 2 0.0000000000000000e+00 -2.5911910290646048e+01 -1.1734612090430829e+01 -1.4094617165946622e+02 0 0 0
3019 87 2 0.0000000000000000e+00 -5.8172427792475601e+00 -5.6748314456871194e+00 -1.4829203967653140e+02 0 0 0
6295 180 4 0.0000000000000000e+00 -1.6385881106859921e+02 4.6426768641010350e+00 -1.4252287647406953e+02 0 0 0
2073 60 2 0.0000000000000000e+00 -1.1445710670400496e+02 5.0190861305192778e+00 -1.4980351895645879e+02 0 0 0
2209 64 1 0.0000000000000000e+00 -7.5192375803617409e+01 4.5808081646436802e+00 -1.4369448116381892e+02 0 0 0
2210 64 2 0.0000000000000000e+00 -6.6727049896331550e+01 9.4536631284001205e-01 -1.3981972877322076e+02 0 0 0
5128 147 3 0.0000000000000000e+00 -2.1105517190065147e+01 5.3385736520818714e+00 -1.4280019177019176e+02 0 0 0
3018 87 2 0.0000000000000000e+00 -1.3827282060032401e+01 3.6848252444534108e-01 -1.5150181986204214e+02 0 0 0
6294 180 4 0.0000000000000000e+00 -1.6646937798679917e+02 1.4527808353531185e+01 -1.4320046785004038e+02 0 0 0
2072 60 2 0.0000000000000000e+00 -1.1839053272705083e+02 1.3316019454920889e+01 -1.5062803901323008e+02 0 0 0
2071 60 2 0.0000000000000000e+00 -1.2730081932856930e+02 1.7019632809265044e+01 -1.4861961350635275e+02 0 0 0
6312 181 4 0.0000000000000000e+00 -1.1226798271483396e+02 1.5994412841333006e+01 -1.4122546755814815e+02 0 0 0
2076 60 1 0.0000000000000000e+00 -1.0579359245958791e+02 2.0218445271504407e+01 -1.4865227797273320e+02 0 0 0
2077 60 2 0.0000000000000000e+00 -1.0141150784070589e+02 2.3131827662327822e+01 -1.3992806356038247e+02 0 0 0
2206 64 2 0.0000000000000000e+00 -7.2078130946747635e+01 1.6876738486309339e+01 -1.5151172950654197e+02 0 0 0
5129 147 4 0.0000000000000000e+00 -2.0011115465824677e+01 1.4901810522276502e+01 -1.4614354683344507e+02 0 0 0
5130 147 4 0.0000000000000000e+00 -1.4075242553330224e+01 2.1251801714991714e+01 -1.4151168933181933e+02 0 0 0
5131 147 4 0.0000000000000000e+00 -4.6352965748294928e+00 2.2555766474337766e+01 -1.4435240295146590e+02 0 0 0
4200 120 4 0.0000000000000000e+00 -5.6519738465221835e+01 -1.0367410638305724e+02 -1.3310067390368940e+02 0 0 0
4199 120 4 0.0000000000000000e+00 -6.0031242220054317e+01 -9.4520489653658913e+01 -1.2983535433485426e+02 0 0 0
4198 120 4 0.0000000000000000e+00 -7.0111906548559674e+01 -9.6572517919010110e+01 -1.2769692904805645e+02 0 0 0
2629 76 1 0.0000000000000000e+00 -2.2445268982746821e+01 -8.7057930405859409e+01 -1.3474003663879381e+02 0 0 0
2630 76 2 0.0000000000000000e+00 -2.1467138670093764e+01 -9.5347849390722985e+01 -1.2884862299187111e+02 0 0 0
1370 40 2 0.0000000000000000e+00 -8.0753745399421049e+01 -8.1900465406939460e+01 -1.3248393598366911e+02 0 0 0
2628 76 2 0.0000000000000000e+00 -3.0431736618769396e+01 -8.2778306396126311e+01 -1.3802622903499065e+02 0 0 0
5437 156 4 0.0000000000000000e+00 -1.2832135485142047e+01 -7.9169176558306759e+01 -1.3820313714482052e+02 0 0 0
2219 64 2 0.0000000000000000e+00 -8.7654137111992313e+01 -6.0346777698846857e+01 -1.3276706104481079e+02 0 0 0
2220 64 2 0.0000000000000000e+00 -8.2327151223914541e+01 -6.6650088122666048e+01 -1.3778536492219550e+02 0 0 0
6504 186 4 0.0000000000000000e+00 -6.6275792005497351e+01 -7.1038885171386141e+01 -1.3278816047247102e+02 0 0 0
1377 40 2 0.0000000000000000e+00 -6.5863761300541725e+01 -5.9650490948528528e+01 -1.3572639905498016e+02 0 0 0
1378 40 2 0.0000000000000000e+00 -5.8172566876716814e+01 -6.0899919558239851e+01 -1.2917472958773064e+02 0 0 0
5434 156 4 0.0000000000000000e+00 -3.2542674520231301e+01 -6.2105939326698625e+01 -1.3671200161470182e+02 0 0 0
1637 47 2 0.0000000000000000e+00 -3.2394420014150654e+01 -6.0793356266733426e+01 -1.2543063873684967e+02 0 0 0
5435 156 4 0.0000000000000000e+00 -2.8749265159561126e+01 -7.0551956442512633e+01 -1.3746693138723890e+02 0 0 0
6331 181 4 0.0000000000000000e+00 -8.1088267329481781e+01 -4.7571163703243286e+01 -1.3141680539085499e+02 0 0 0
2218 64 2 0.0000000000000000e+00 -8.0372046876784182e+01 -5.8392763100721488e+01 -1.2666865147726882e+02 0 0 0
5432 156 4 0.0000000000000000e+00 -4.7795020966486533e+01 -4.9205317426969252e+01 -1.3371318538145457e+02 0 0 0
5433 156 4 0.0000000000000000e+00 -3.9997754277852685e+01 -5.5431312397570593e+01 -1.3361394616639342e+02 0 0 0
1636 47 2 0.0000000000000000e+00 -2.8131868519783914e+01 -5.3960411655647746e+01 -1.3137082191800152e+02 0 0 0
4544 130 4 0.0000000000000000e+00 -7.6086553199668412e+00 -5.5554653970236878e+01 -1.2913061648455184e+02 0 0 0
4545 130 4 0.0000000000000000e+00 -8.8173179448232251e+00 -4.6826235186845075e+01 -1.3347982919389474e+02 0 0 0
2521 73 2 0.0000000000000000e+00 -1.3979338655908728e+02 -4.2778343017862490e+01 -1.2917927270072568e+02 0 0 0
4746 136 4 0.0000000000000000e+00 -1.0681645438998333e+02 -3.7718014708016774e+01 -1.3499828228713230e+02 0 0 0
4747 136 4 0.0000000000000000e+00 -1.0823826272150585e+02 -3.4615717835490507e+01 -1.2571883013482584e+02 0 0 0
2096 60 2 0.0000000000000000e+00 -9.5101757080680898e+01 -3.6268841117695331e+01 -1.3172567762723884e+02 0 0 0
2215 64 2 0.0000000000000000e+00 -7.8148192174084642e+01 -3.3159955826521461e+01 -1.2809920420886365e+02 0 0 0
6330 181 4 0.0000000000000000e+00 -7.2940768171286379e+01 -4.2574534859731862e+01 -1.2951199504972541e+02 0 0 0
2090 60 1 0.0000000000000000e+00 -6.3154920352640033e+01 -3.1273064155653824e+01 -1.3551938482105339e+02 0 0 0
6329 181 4 0.0000000000000000e+00 -6.3818416030307830e+01 -4.2168620005573388e+01 -1.2543878121872034e+02 0 0 0
6326 181 4 0.0000000000000000e+00 -3.9376809532099827e+01 -3.6579769323929945e+01 -1.2502587105158314e+02 0 0 0
2084 60 2 0.0000000000000000e+00 -1.0228988878304837e+02 -2.1305152402969153e+01 -1.2882636010581996e+02 0 0 0
2085 60 2 0.0000000000000000e+00 -9.2235598463002219e+01 -2.0790917230434658e+01 -1.2762725536625337e+02 0 0 0
5543 159 4 0.0000000000000000e+00 -8.0523456788653291e+01 -2.3119322487438453e+01 -1.3328175280426075e+02 0 0 0
2089 60 2 0.0000000000000000e+00 -6.5536678986116712e+01 -2.1849842659105391e+01 -1.3676332438471402e+02 0 0 0
2214 64 2 0.0000000000000000e+00 -7.0094099064043561e+01 -2.6852666123622491e+01 -1.2893629038355101e+02 0 0 0
2213 64 2 0.0000000000000000e+00 -6.0198890641762269e+01 -2.3447051303104136e+01 -1.2861206975667483e+02 0 0 0
5251 151 4 0.0000000000000000e+00 -2.8437075921981556e+01 -2.0206040364725972e+01 -1.2572158280558523e+02 0 0 0
2552 73 1 0.0000000000000000e+00 -1.4696971753878367e+02 -1.2428770166472452e+01 -1.3374274213050904e+02 0 0 0
6315 181 4 0.0000000000000000e+00 -1.0543129068428534e+02 -7.9893555946967005e+00 -1.3802532812816349e+02 0 0 0
6316 181 4 0.0000000000000000e+00 -9.6558468470231404e+01 -5.5131269084788546e+00 -1.3488005127009021e+02 0 0 0
6317 181 4 0.0000000000000000e+00 -8.7264364326566167e+01 -5.0481551868465893e+00 -1.3816473803413240e+02 0 0 0
2086 60 2 0.0000000000000000e+00 -8.5568990109167743e+01 -1.3536587875830930e+01 -1.2918467869721815e+02 0 0 0
2087 60 2 0.0000000000000000e+00 -7.6060188417235040e+01 -1.2388044743911511e+01 -1.2880916398094172e+02 0 0 0
2088 60 2 0.0000000000000000e+00 -6.5967362588346461e+01 -1.4693071030464473e+01 -1.3000241425017063e+02 0 0 0
2212 64 2 0.0000000000000000e+00 -5.7936886714167343e+01 -1.6102391621897898e+01 -1.3588702936734458e+02 0 0 0
1535 44 2 0.0000000000000000e+00 -4.5971826344501075e+01 -1.4678132052441901e+01 -1.3759581188603721e+02 0 0 0
1536 44 2 0.0000000000000000e+00 -4.3600740182047808e+01 -1.6031130669124128e+01 -1.2765374064919953e+02 0 0 0
5252 151 4 0.0000000000000000e+00 -2.3583091520868440e+01 -1.1386611166794294e+01 -1.2623992435023179e+02 0 0 0
1531 44 2 0.0000000000000000e+00 -1.6354905133428627e+01 -1.0713734603238526e+01 -1.3758644381987315e+02 0 0 0
6296 180 4 0.0000000000000000e+00 -1.5866870358512642e+02 -2.1885013903906834e+00 -1.3756008086532600e+02 0 0 0
6297 180 3 0.0000000000000000e+00 -1.4979503159702176e+02 -1.4085115375428587e+00 -1.3295099539668720e+02 0 0 0
6298 180 4 0.0000000000000000e+00 -1.4198828132111231e+02 2.0141450472062563e+00 -1.2839729728790945e+02 0 0 0
6299 180 4 0.0000000000000000e+00 -1.3331842857815417e+02 5.4590977205450759e+00 -1.3111272412101633e+02 0 0 0
6313 181 4 0.0000000000000000e+00 -1.1316165082913642e+02 6.4853752577898653e+00 -1.3810443546513568e+02 0 0 0
6314 181 4 0.0000000000000000e+00 -1.1428050286984569e+02 -3.3286659191564256e+00 -1.3565402323760975e+02 0 0 0
5900 169 4 0.0000000000000000e+00 -1.0325241593990043e+02 5.5686549941986936e+00 -1.2733385712564049e+02 0 0 0
5901 169 4 0.0000000000000000e+00 -9.5663673823977604e+01 9.3722419933573349e+00 -1.3212762636230991e+02 0 0 0
6318 181 3 0.0000000000000000e+00 -7.7691697899062532e+01 -3.0288485453294234e+00 -1.3565770558710850e+02 0 0 0
6319 181 4 0.0000000000000000e+00 -7.1289196587352649e+01 2.9821896679478632e+00 -1.3045713920104157e+02 0 0 0
6321 181 4 0.0000000000000000e+00 -6.0372552885553226e+01 6.5045882478699255e+00 -1.2817908174002960e+02 0 0 0
6322 181 4 0.0000000000000000e+00 -5.5728789506657790e+01 -2.8868475155977911e+00 -1.2799719404909975e+02 0 0 0
5127 147 4 0.0000000000000000e+00 -2.7968166229271290e+01 4.3723061053744487e+00 -1.3600411046601499e+02 0 0 0
5126 147 4 0.0000000000000000e+00 -2.6689489510208041e+01 5.0639399494233626e+00 -1.2562709627577802e+02 0 0 0
1530 44 1 0.0000000000000000e+00 -1.3338500309373220e+01 -9.1174595108695577e-01 -1.3781443745987823e+02 0 0 0
1529 44 2 0.0000000000000000e+00 -1.6350125683347617e+01 7.1605838214663002e+00 -1.3338709519436873e+02 0 0 0
6293 180 4 0.0000000000000000e+00 -1.7191598464567272e+02 2.0880890917464260e+01 -1.3755590250507652e+02 0 0 0
6292 180 4 0.0000000000000000e+00 -1.6686978107315724e+02 2.3013744449640196e+01 -1.2922309497218873e+02 0 0 0
6300 180 4 0.0000000000000000e+00 -1.2673589179541814e+02 1.2128740016793470e+01 -1.3484526552432459e+02 0 0 0
2078 60 2 0.0000000000000000e+00 -1.0803393783796474e+02 2.1987965062989733e+01 -1.3196499749879220e+02 0 0 0
5902 169 4 0.0000000000000000e+00 -9.2641170449268316e+01 1.7796331033177076e+01 -1.2828143894247552e+02 0 0 0
6320 181 4 0.0000000000000000e+00 -6.8079829742370023e+01 1.2252208891116625e+01 -1.2714680853526143e+02 0 0 0
1528 44 2 0.0000000000000000e+00 -1.5350871773186480e+01 1.4093830100449404e+01 -1.2627117791729977e+02 0 0 0
6231 179 4 0.0000000000000000e+00 -5.9507274428123360e+01 -1.6930273196783497e+02 -1.2093671732701941e+02 0 0 0
6232 179 4 0.0000000000000000e+00 -5.5727602297354387e+01 -1.6050232628944229e+02 -1.2270609048189107e+02 0 0 0
2805 81 2 0.0000000000000000e+00 -5.1999263917251206e+01 -1.4205856861253309e+02 -1.1993183437122450e+02 0 0 0
6233 179 4 0.0000000000000000e+00 -4.8264780604813645e+01 -1.5386918492600358e+02 -1.1964032329733449e+02 0 0 0
2804 81 1 0.0000000000000000e+00 -5.4816946143149650e+01 -1.4627908051313847e+02 -1.1113159098447636e+02 0 0 0
6234 179 3 0.0000000000000000e+00 -4.4016248545532342e+01 -1.4726765206778026e+02 -1.1401847932826234e+02 0 0 0
2806 81 2 0.0000000000000000e+00 -6.0416381701073178e+01 -1.3900386815041219e+02 -1.2267165632749324e+02 0 0 0
2807 81 2 0.0000000000000000e+00 -6.4112099692022184e+01 -1.3618772147005578e+02 -1.1340713564689220e+02 0 0 0
2809 81 2 0.0000000000000000e+00 -5.8324944348890646e+01 -1.2290911227479663e+02 -1.1589870193408684e+02 0 0 0
2810 81 2 0.0000000000000000e+00 -4.9091340140386400e+01 -1.2103307218586042e+02 -1.1527880853346646e+02 0 0 0
3991 115 4 0.0000000000000000e+00 -7.9890085741542947e+01 -1.0882247363816637e+02 -1.1151388230425393e+02 0 0 0
3992 115 4 0.0000000000000000e+00 -7.0835355373103027e+01 -1.0478292946208106e+02 -1.1244168507197180e+02 0 0 0
3993 115 4 0.0000000000000000e+00 -6.2172196773652139e+01 -1.0007252380014930e+02 -1.1368829891089405e+02 0 0 0
3994 115 3 0.0000000000000000e+00 -5.3508064136754392e+01 -1.0495243907915714e+02 -1.1185106887301444e+02 0 0 0
5460 156 4 0.0000000000000000e+00 -1.0239222104528489e+01 -1.0941402384019445e+02 -1.1407383310147274e+02 0 0 0
4197 120 3 0.0000000000000000e+00 -6.7463972721170592e+01 -8.9296976803926384e+01 -1.2109746815275609e+02 0 0 0
2631 76 2 0.0000000000000000e+00 -1.9091059435906864e+01 -9.6598767662487035e+01 -1.1905289703426894e+02 0 0 0
1369 40 1 0.0000000000000000e+00 -7.6617225621268489e+01 -8.3558253973508997e+01 -1.2381048767528701e+02 0 0 0
1368 40 2 0.0000000000000000e+00 -7.0106923969841276e+01 -7.9562599904831956e+01 -1.1731436513247020e+02 0 0 0
4196 120 4 0.0000000000000000e+00 -6.1572895940845811e+01 -8.3706170701035234e+01 -1.1596241809350826e+02 0 0 0
1639 47 2 0.0000000000000000e+00 -2.5477654006952868e+01 -7.6148476397621621e+01 -1.1957756031873437e+02 0 0 0
1640 47 2 0.0000000000000000e+00 -2.2071742964702988e+01 -8.2607555183690408e+01 -1.1313131979124329e+02 0 0 0
6503 186 4 0.0000000000000000e+00 -6.9582608424373419e+01 -6.9071608632659689e+01 -1.2366199974630138e+02 0 0 0
6502 186 4 0.0000000000000000e+00 -6.6363421994993999e+01 -5.9894908253434679e+01 -1.2088326751434981e+02 0 0 0
4194 120 4 0.0000000000000000e+00 -4.9284914183787933e+01 -7.0692723100277661e+01 -1.1341204949198548e+02 0 0 0
1379 40 2 0.0000000000000000e+00 -4.9783711284104172e+01 -6.1155874886456019e+01 -1.2295529695057550e+02 0 0 0
1638 47 2 0.0000000000000000e+00 -2.5459605438686278e+01 -6.7178254649083485e+01 -1.2303446340624474e+02 0 0 0
4542 130 4 0.0000000000000000e+00 -5.0520914063357107e+00 -7.1457150585874487e+01 -1.1958313178121055e+02 0 0 0
4844 139 4 0.0000000000000000e+00 -1.0401347321773347e+01 -6.3814758043464394e+01 -1.1388980035056358e+02 0 0 0
4845 139 4 0.0000000000000000e+00 -1.6281406749935787e+01 -7.1703986620549713e+01 -1.1227396190629693e+02 0 0 0
2523 73 2 0.0000000000000000e+00 -1.2779139658407230e+02 -4.9649456334512401e+01 -1.1542822026465238e+02 0 0 0
2100 60 2 0.0000000000000000e+00 -1.0088489098882032e+02 -5.6685062125276943e+01 -1.1194989576752413e+02 0 0 0
2217 64 2 0.0000000000000000e+00 -8.0546190340572295e+01 -4.9387723373113289e+01 -1.2079028322794817e+02 0 0 0
6501 186 4 0.0000000000000000e+00 -6.7104089634503381e+01 -5.0404762948615314e+01 -1.2043471317000429e+02 0 0 0
5550 159 4 0.0000000000000000e+00 -4.8811424078536504e+01 -4.5004773207844892e+01 -1.1307379486936735e+02 0 0 0
1380 40 2 0.0000000000000000e+00 -4.5207008171499297e+01 -5.7381112166034534e+01 -1.1551550860450048e+02 0 0 0
5551 159 4 0.0000000000000000e+00 -3.9824780760307256e+01 -4.5939041152659989e+01 -1.1701174838531840e+02 0 0 0
4836 139 4 0.0000000000000000e+00 -2.8268828423785237e+01 -5.7917007993332511e+01 -1.1367610567773528e+02 0 0 0
4837 139 4 0.0000000000000000e+00 -2.4338254101675936e+01 -4.9286938731855827e+01 -1.1723234356584335e+02 0 0 0
2522 73 2 0.0000000000000000e+00 -1.3390423526027050e+02 -4.4505000434294054e+01 -1.2164467400416736e+02 0 0 0
2098 60 2 0.0000000000000000e+00 -1.0112597612247906e+02 -4.0510824362349204e+01 -1.1407660520428416e+02 0 0 0
2097 60 1 0.0000000000000000e+00 -9.7481802609316020e+01 -3.8842661880123451e+01 -1.2288513434156445e+02 0 0 0
6513 187 4 0.0000000000000000e+00 -9.0136755407057024e+01 -3.9047384148767470e+01 -1.1111030322248277e+02 0 0 0
6514 187 3 0.0000000000000000e+00 -8.8897198792392302e+01 -3.2682578582372400e+01 -1.1866846755878157e+02 0 0 0
2216 64 1 0.0000000000000000e+00 -8.0711989652784723e+01 -3.9410753740166669e+01 -1.2152426377712516e+02 0 0 0
6500 186 3 0.0000000000000000e+00 -7.3594139177246902e+01 -4.4739138206626848e+01 -1.1485691403380710e+02 0 0 0
6328 181 4 0.0000000000000000e+00 -5.6799772926310041e+01 -4.4494791773483371e+01 -1.1981927094399727e+02 0 0 0
6327 181 4 0.0000000000000000e+00 -4.8431151077855475e+01 -3.9815640118961170e+01 -1.2315275523954998e+02 0 0 0
4839 139 4 0.0000000000000000e+00 -8.0969150941692565e+00 -3.9629461642695333e+01 -1.2450113596517600e+02 0 0 0
4838 139 4 0.0000000000000000e+00 -1.6066268271882009e+01 -4.4720561479977682e+01 -1.2120865499955450e+02 0 0 0