LAMMPS data file via write_data, version 5 Jun 2019, timestep = 370000000

7000 atoms
4 atom types
7288 bonds
3 bond types
6600 angles
2 angle types

-5.0000000000000000e+02 5.0000000000000000e+02 xlo xhi
-5.0000000000000000e+02 5.0000000000000000e+02 ylo yhi
-5.0000000000000000e+02 5.0000000000000000e+02 zlo zhi

Masses

1 1000
2 1000
3 1000
4 1000

Pair Coeffs # lj/cut

1 0.178 10
2 0.178 10
3 0.178 10
4 0.178 10

Angle Coeffs # cosine

1 2
2 2

Atoms # full

4739 136 4 0.0000000000000000e+00 -3.9527978374781590e+01 -5.3107443848271778e+01 -1.7137759136403517e+02 0 0 0
4726 136 4 0.0000000000000000e+00 -2.8591071972464025e+01 -4.9833979488435482e+01 -1.6824988710614312e+02 0 0 0
4727 136 4 0.0000000000000000e+00 -1.9116340782081604e+01 -4.9367285286997117e+01 -1.7161530718367405e+02 0 0 0
4728 136 4 0.0000000000000000e+00 -1.0668677615181842e+01 -4.4240033715024175e+01 -1.6818265924199341e+02 0 0 0
6161 177 4 0.0000000000000000e+00 -2.0456470000270311e+01 3.1996361559795055e+01 -1.7933878688716140e+02 0 0 0
2227 64 2 0.0000000000000000e+00 -7.2156074975579429e+01 -7.8831616214576314e+01 -1.6079354860547454e+02 0 0 0
2228 64 2 0.0000000000000000e+00 -7.7209629811676990e+01 -7.0554204888090979e+01 -1.5926682429118497e+02 0 0 0
2229 64 2 0.0000000000000000e+00 -6.8514300909888689e+01 -6.7562546960639239e+01 -1.5677046098364227e+02 0 0 0
4444 127 4 0.0000000000000000e+00 -5.2049281947403436e+01 -6.9505841055230619e+01 -1.5922671018146289e+02 0 0 0
4445 127 4 0.0000000000000000e+00 -4.3373968036530648e+01 -7.1300214912584266e+01 -1.5620991351177426e+02 0 0 0
4741 136 4 0.0000000000000000e+00 -3.5549382422652577e+01 -6.7331357605026625e+01 -1.5891452983819261e+02 0 0 0
4549 130 4 0.0000000000000000e+00 -2.1882646276199551e+01 -6.6287761455184068e+01 -1.5753313526617225e+02 0 0 0
4550 130 4 0.0000000000000000e+00 -1.8817117655711165e+01 -7.1653842275302637e+01 -1.6633861382447350e+02 0 0 0
2230 64 1 0.0000000000000000e+00 -6.4710019159481973e+01 -5.8018175464457322e+01 -1.5525160202960490e+02 0 0 0
4443 127 4 0.0000000000000000e+00 -5.6154630501114106e+01 -6.0299860251184498e+01 -1.6037146085042147e+02 0 0 0
4442 127 3 0.0000000000000000e+00 -5.6040403381779363e+01 -5.1662679086269151e+01 -1.5498861320377273e+02 0 0 0
4740 136 4 0.0000000000000000e+00 -3.4785827710682362e+01 -6.0011602489319522e+01 -1.6665964967310742e+02 0 0 0
1633 47 2 0.0000000000000000e+00 -2.2639151644756819e+01 -4.8107760117892383e+01 -1.5873211820693365e+02 0 0 0
1623 47 2 0.0000000000000000e+00 -5.2469499608564412e+01 -3.4623004825137798e+01 -1.6365234227125973e+02 0 0 0
4738 136 4 0.0000000000000000e+00 -3.6834969004186092e+01 -4.5017198194401118e+01 -1.6547456962204038e+02 0 0 0
1625 47 2 0.0000000000000000e+00 -4.5804484382121871e+01 -4.6840926655088232e+01 -1.5342430302879580e+02 0 0 0
1624 47 2 0.0000000000000000e+00 -4.5535174634538294e+01 -4.2740827936499727e+01 -1.6247962709687187e+02 0 0 0
1631 47 2 0.0000000000000000e+00 -3.9029370482192611e+01 -3.8508805511361139e+01 -1.5405275617757019e+02 0 0 0
4737 136 4 0.0000000000000000e+00 -3.3356397363445161e+01 -3.5725224052674776e+01 -1.6353699558936754e+02 0 0 0
1632 47 2 0.0000000000000000e+00 -3.1672801025980228e+01 -4.4761113796956941e+01 -1.5625736030512832e+02 0 0 0
1634 47 2 0.0000000000000000e+00 -1.3474770010357899e+01 -4.4983368701819664e+01 -1.5848155386994705e+02 0 0 0
4438 127 4 0.0000000000000000e+00 -5.3126582223936445e+01 -2.0856702891272754e+01 -1.6127797494879209e+02 0 0 0
4439 127 4 0.0000000000000000e+00 -5.9185596878694724e+01 -2.4410817611484131e+01 -1.5411450048767480e+02 0 0 0
1622 47 2 0.0000000000000000e+00 -4.5959671869962065e+01 -2.7547199765231870e+01 -1.6056000568553753e+02 0 0 0
1621 47 1 0.0000000000000000e+00 -3.7654260050605643e+01 -2.6017754258550529e+01 -1.5579450302490662e+02 0 0 0
4736 136 3 0.0000000000000000e+00 -2.7715641726586011e+01 -3.1398241594744341e+01 -1.5614816188626429e+02 0 0 0
4437 127 4 0.0000000000000000e+00 -4.7127163119766578e+01 -1.3063274997849041e+01 -1.6300292611520453e+02 0 0 0
4436 127 4 0.0000000000000000e+00 -4.0955835347614915e+01 -5.2812413401655247e+00 -1.6258746051045637e+02 0 0 0
4435 127 3 0.0000000000000000e+00 -4.2337610691979059e+01 1.4944307059714121e+00 -1.5494356826632824e+02 0 0 0
3013 87 2 0.0000000000000000e+00 -2.8850469205431679e+01 6.9412663490998865e+00 -1.5501552029075106e+02 0 0 0
3012 87 2 0.0000000000000000e+00 -2.3512833596032159e+01 1.2319089473734495e+01 -1.6166976743919622e+02 0 0 0
3011 87 2 0.0000000000000000e+00 -1.5074626667462219e+01 8.5421642994357665e+00 -1.5790248131965174e+02 0 0 0
2225 64 2 0.0000000000000000e+00 -6.8737362995424945e+01 -7.9850488538143978e+01 -1.4206692654855809e+02 0 0 0
2226 64 2 0.0000000000000000e+00 -6.7183529021418693e+01 -7.8241822010065206e+01 -1.5140258993168493e+02 0 0 0
2237 64 1 0.0000000000000000e+00 -4.2234848445053679e+01 -7.6255578521227065e+01 -1.3983236717068812e+02 0 0 0
2234 64 2 0.0000000000000000e+00 -6.9029489186034709e+01 -6.8410347077093149e+01 -1.4621033794362447e+02 0 0 0
2236 64 2 0.0000000000000000e+00 -5.0351594554427834e+01 -7.1899650470782788e+01 -1.4406583635440677e+02 0 0 0
2235 64 2 0.0000000000000000e+00 -5.9087662178114144e+01 -6.7778717610194363e+01 -1.4464315640908492e+02 0 0 0
4742 136 4 0.0000000000000000e+00 -3.5285670614421804e+01 -6.6752220236611208e+01 -1.4920961032015219e+02 0 0 0
5431 156 4 0.0000000000000000e+00 -1.5200602601969260e+01 -6.7736492112935451e+01 -1.4011928365687578e+02 0 0 0
2232 64 2 0.0000000000000000e+00 -7.5028680380318022e+01 -4.9413557029907771e+01 -1.4347710664145887e+02 0 0 0
2233 64 2 0.0000000000000000e+00 -7.2858952207513710e+01 -5.8805929241207899e+01 -1.4437140720403113e+02 0 0 0
2231 64 2 0.0000000000000000e+00 -6.7218222165752223e+01 -4.9058551054908087e+01 -1.5050104983023419e+02 0 0 0
1626 47 2 0.0000000000000000e+00 -5.1298770236485311e+01 -4.9126425430107389e+01 -1.4536072207246806e+02 0 0 0
4548 130 4 0.0000000000000000e+00 -2.1508626995957531e+01 -5.7393354293443885e+01 -1.5270434628675073e+02 0 0 0
4547 130 3 0.0000000000000000e+00 -2.3287552834424734e+01 -5.1017058118294642e+01 -1.4483477713677061e+02 0 0 0
3022 87 2 0.0000000000000000e+00 -1.2559526194755954e+01 -4.8964989718181080e+01 -1.4242060091547435e+02 0 0 0
4440 127 4 0.0000000000000000e+00 -6.1763485126752457e+01 -3.4264722285393624e+01 -1.5168395228742003e+02 0 0 0
4441 127 4 0.0000000000000000e+00 -5.6320102213243359e+01 -4.2228495222825771e+01 -1.5289766781121349e+02 0 0 0
1629 47 2 0.0000000000000000e+00 -5.2503733497528266e+01 -3.7615681195571199e+01 -1.3953688987796849e+02 0 0 0
1630 47 2 0.0000000000000000e+00 -4.6031139758484223e+01 -3.8925853573883487e+01 -1.4696179926772558e+02 0 0 0
3019 87 2 0.0000000000000000e+00 -3.5833071585783713e+01 -3.3526562335313947e+01 -1.4297461736389729e+02 0 0 0
3020 87 2 0.0000000000000000e+00 -2.6998020482147425e+01 -3.7558186065652521e+01 -1.4604590745929676e+02 0 0 0
3021 87 1 0.0000000000000000e+00 -1.7944771566900684e+01 -4.1154898633193262e+01 -1.4506219312558616e+02 0 0 0
3018 87 2 0.0000000000000000e+00 -3.8222495585125145e+01 -2.5058775774143676e+01 -1.3972341561260529e+02 0 0 0
1620 47 2 0.0000000000000000e+00 -3.0117025579899234e+01 -2.3571519776314503e+01 -1.4947776999770400e+02 0 0 0
1619 47 2 0.0000000000000000e+00 -2.2130738279277793e+01 -2.2522517675111782e+01 -1.4287616302366840e+02 0 0 0
4735 136 4 0.0000000000000000e+00 -1.9587993323825152e+01 -3.1820962999116368e+01 -1.5006660836895995e+02 0 0 0
4734 136 4 0.0000000000000000e+00 -1.2285698247569005e+01 -3.0176406902011763e+01 -1.4379065884974236e+02 0 0 0
5539 159 4 0.0000000000000000e+00 -6.2004497702431692e+01 -1.8999852887065842e+01 -1.3939374887693373e+02 0 0 0
3017 87 2 0.0000000000000000e+00 -3.6567786077023293e+01 -1.5303321388792881e+01 -1.3941899387272628e+02 0 0 0
3014 87 1 0.0000000000000000e+00 -3.4895959810882822e+01 4.1574447322430670e+00 -1.4722119719515655e+02 0 0 0
4434 127 4 0.0000000000000000e+00 -4.9194641657839206e+01 8.2717442925568623e+00 -1.5293346963585620e+02 0 0 0
4433 127 4 0.0000000000000000e+00 -5.2261631372600817e+01 1.1072242349718382e+01 -1.4379266850323307e+02 0 0 0
2074 60 2 0.0000000000000000e+00 -1.1113945263126077e+02 3.2004328144170280e+01 -1.4561890510376369e+02 0 0 0
6308 181 4 0.0000000000000000e+00 -9.1684637205066338e+01 2.5592886841193376e+01 -1.4944357721522860e+02 0 0 0
6309 181 4 0.0000000000000000e+00 -9.9084667887398780e+01 2.9474500857119285e+01 -1.4466458722082479e+02 0 0 0
6307 181 4 0.0000000000000000e+00 -8.3196198615359719e+01 3.0866447943232235e+01 -1.5179607818212745e+02 0 0 0
2240 64 2 0.0000000000000000e+00 -4.7920516199681664e+01 -1.0077663860027910e+02 -1.2597059924620342e+02 0 0 0
2239 64 2 0.0000000000000000e+00 -4.4542423862243176e+01 -9.3683714497055490e+01 -1.3133347849450658e+02 0 0 0
2223 64 1 0.0000000000000000e+00 -7.8276584530070878e+01 -8.5226329376862992e+01 -1.2671602322976258e+02 0 0 0
2224 64 2 0.0000000000000000e+00 -7.3398303824161090e+01 -8.4748249105810231e+01 -1.3571566801976712e+02 0 0 0
2238 64 2 0.0000000000000000e+00 -4.2353813559996993e+01 -8.5401381498874031e+01 -1.3648174294174933e+02 0 0 0
6511 187 4 0.0000000000000000e+00 -1.1126020614435565e+02 -7.4061550335065277e+01 -1.2830034260412251e+02 0 0 0
4745 136 4 0.0000000000000000e+00 -5.3831687637736295e+01 -6.1832542990363599e+01 -1.3486101280286732e+02 0 0 0
5427 156 4 0.0000000000000000e+00 -4.9108224631231174e+01 -7.3676377932504039e+01 -1.3142372617292267e+02 0 0 0
4743 136 3 0.0000000000000000e+00 -3.7691637603093518e+01 -6.6115358940047372e+01 -1.3902542094439161e+02 0 0 0
5428 156 4 0.0000000000000000e+00 -4.1560604177640236e+01 -6.7100628544537045e+01 -1.2905747447076456e+02 0 0 0
5430 156 4 0.0000000000000000e+00 -2.4418553688781230e+01 -6.6322479587228173e+01 -1.3617374391016210e+02 0 0 0
5429 156 3 0.0000000000000000e+00 -3.2036512887548433e+01 -6.4113094242874993e+01 -1.2967580669679742e+02 0 0 0
4746 136 4 0.0000000000000000e+00 -6.2521917375327298e+01 -5.7174797788413350e+01 -1.3531891917883664e+02 0 0 0
4747 136 4 0.0000000000000000e+00 -6.6262536826025155e+01 -4.8118103234811123e+01 -1.3537320511842006e+02 0 0 0
1627 47 2 0.0000000000000000e+00 -5.1387107003786873e+01 -4.9451284100002084e+01 -1.3541340392448487e+02 0 0 0
4744 136 4 0.0000000000000000e+00 -4.4394838537048429e+01 -5.9347590775881045e+01 -1.3762412491169243e+02 0 0 0
4546 130 4 0.0000000000000000e+00 -2.4604336555858900e+01 -4.7811714111955290e+01 -1.3546476477191035e+02 0 0 0
4544 130 4 0.0000000000000000e+00 -9.5140333889100166e+00 -4.9754528570009398e+01 -1.2683466750334640e+02 0 0 0
4748 136 4 0.0000000000000000e+00 -6.9854984543454989e+01 -3.8945561589449397e+01 -1.3316110638050344e+02 0 0 0
1628 47 1 0.0000000000000000e+00 -4.9643598694739609e+01 -4.1217077291347223e+01 -1.3077271023912309e+02 0 0 0
4545 130 4 0.0000000000000000e+00 -1.7728744365246904e+01 -4.5266795702533905e+01 -1.2932896448531184e+02 0 0 0
4749 136 4 0.0000000000000000e+00 -7.5176522129688408e+01 -3.2302547606789638e+01 -1.2755622265365240e+02 0 0 0
5540 159 4 0.0000000000000000e+00 -5.7178478535283766e+01 -2.7366228363955923e+01 -1.3768597303849569e+02 0 0 0
5541 159 3 0.0000000000000000e+00 -5.3643930430372983e+01 -3.0614542865251131e+01 -1.2942137842958039e+02 0 0 0
1618 47 2 0.0000000000000000e+00 -1.7074885043238030e+01 -2.4292614411001988e+01 -1.3476608123772181e+02 0 0 0
1617 47 2 0.0000000000000000e+00 -1.2770036643288657e+01 -2.9120343837119471e+01 -1.2636734897917921e+02 0 0 0
5538 159 4 0.0000000000000000e+00 -6.4987559310961402e+01 -1.0146240261304859e+01 -1.3638612873983837e+02 0 0 0
1537 44 1 0.0000000000000000e+00 -3.4929599072469323e+01 -1.0593505633393885e+01 -1.2537368931442842e+02 0 0 0
3016 87 2 0.0000000000000000e+00 -3.4055584123220413e+01 -7.0602561952149703e+00 -1.3468826343258766e+02 0 0 0
5535 159 4 0.0000000000000000e+00 -8.2999878521845886e+01 3.8495298375317981e+00 -1.3080390176815052e+02 0 0 0
5536 159 4 0.0000000000000000e+00 -7.3749868131568661e+01 3.3801824267441583e+00 -1.3403509101638531e+02 0 0 0
5537 159 4 0.0000000000000000e+00 -6.7138847544535636e+01 -2.5006771500511769e+00 -1.3064947900382973e+02 0 0 0
1535 44 2 0.0000000000000000e+00 -4.9193131322246209e+01 -3.2084114434317024e+00 -1.3078084257046953e+02 0 0 0
1536 44 2 0.0000000000000000e+00 -4.0495383008388629e+01 -2.8933518747165676e+00 -1.2627424118816614e+02 0 0 0
3015 87 2 0.0000000000000000e+00 -3.1972078505735301e+01 2.7616324872804325e+00 -1.3807591093310663e+02 0 0 0
2555 73 2 0.0000000000000000e+00 -1.5624290374525449e+02 1.2543298088412778e+01 -1.2658552671193767e+02 0 0 0
6311 181 3 0.0000000000000000e+00 -1.0657596101550745e+02 1.6846467374759818e+01 -1.3422008177729839e+02 0 0 0
2077 60 2 0.0000000000000000e+00 -1.1329288036909571e+02 2.1421212624650714e+01 -1.2701130967453759e+02 0 0 0
6312 181 4 0.0000000000000000e+00 -1.0014087589360571e+02 1.2470599993266459e+01 -1.2759825886802558e+02 0 0 0
1802 52 2 0.0000000000000000e+00 -8.7957662421273227e+01 1.9941912849145528e+01 -1.2550831641090976e+02 0 0 0
4431 127 4 0.0000000000000000e+00 -6.3901182078826800e+01 1.9597152889752540e+01 -1.3106599616685952e+02 0 0 0
4432 127 4 0.0000000000000000e+00 -5.9798258374375457e+01 1.5196181495240529e+01 -1.3896148234906903e+02 0 0 0
2076 60 1 0.0000000000000000e+00 -1.0997839025513679e+02 2.7907808882567220e+01 -1.3421177993646450e+02 0 0 0
6310 181 4 0.0000000000000000e+00 -9.9727128984536463e+01 2.3913121690993151e+01 -1.3603688155541982e+02 0 0 0
4430 127 4 0.0000000000000000e+00 -6.7267881369602563e+01 2.9219440089661724e+01 -1.3010936264875838e+02 0 0 0
1762 51 2 0.0000000000000000e+00 -2.0866418820056932e+01 2.5599831046469330e+01 -1.2703280133474095e+02 0 0 0
1761 51 1 0.0000000000000000e+00 -1.5833192549755328e+01 2.7189599808992870e+01 -1.3565693196077657e+02 0 0 0
6510 186 4 0.0000000000000000e+00 -1.1006455956933540e+02 -1.0102040204814914e+02 -1.2193756604128097e+02 0 0 0
6509 186 4 0.0000000000000000e+00 -1.0032869298341075e+02 -9.9233461003718801e+01 -1.2465776322659033e+02 0 0 0
6508 186 4 0.0000000000000000e+00 -9.2514349543884592e+01 -9.7343589871616544e+01 -1.1966135732158504e+02 0 0 0
6507 186 3 0.0000000000000000e+00 -8.3204475961370491e+01 -9.3854205093042026e+01 -1.2168427611372530e+02 0 0 0
6506 186 4 0.0000000000000000e+00 -7.4285733501787291e+01 -8.9700842222789063e+01 -1.1871238303826195e+02 0 0 0
2100 60 2 0.0000000000000000e+00 -1.1343436437673873e+02 -7.5095260979617180e+01 -1.1254808375227005e+02 0 0 0
2222 64 2 0.0000000000000000e+00 -8.1448869196591303e+01 -8.1486926542680635e+01 -1.1839022477088022e+02 0 0 0
6505 186 4 0.0000000000000000e+00 -6.4177737947638747e+01 -8.7418677053910329e+01 -1.1724222440160109e+02 0 0 0
6512 187 4 0.0000000000000000e+00 -1.0459482362350542e+02 -6.8947334078679461e+01 -1.2358973458346260e+02 0 0 0
2094 60 2 0.0000000000000000e+00 -6.4830589237907986e+01 -6.5092208724495407e+01 -1.1512076257938214e+02 0 0 0
5426 156 4 0.0000000000000000e+00 -5.4811169578366631e+01 -7.0261753232149786e+01 -1.2413938822885554e+02 0 0 0
2092 60 2 0.0000000000000000e+00 -4.8589357441406300e+01 -7.4011406259765010e+01 -1.1430546949860364e+02 0 0 0
2091 60 2 0.0000000000000000e+00 -4.1324764243109747e+01 -6.9238418154468619e+01 -1.1961784371281058e+02 0 0 0
6513 187 4 0.0000000000000000e+00 -9.9485623719197477e+01 -6.0532628009459749e+01 -1.1888445988270088e+02 0 0 0
2095 60 2 0.0000000000000000e+00 -7.3094130415912957e+01 -6.0116594900967620e+01 -1.1276704902926728e+02 0 0 0
2089 60 2 0.0000000000000000e+00 -4.0112341863497612e+01 -5.0393018470308768e+01 -1.2254221406968558e+02 0 0 0
2090 60 1 0.0000000000000000e+00 -3.9746998345860739e+01 -6.0245451940079434e+01 -1.2322470890274327e+02 0 0 0
1611 47 2 0.0000000000000000e+00 -2.3988868979339919e+01 -5.4929787429554352e+01 -1.2232036641760834e+02 0 0 0
1612 47 2 0.0000000000000000e+00 -1.9370804051585964e+01 -5.0400982890173339e+01 -1.1538433809941851e+02 0 0 0
5544 159 4 0.0000000000000000e+00 -6.5698967873038967e+01 -4.4949823050759726e+01 -1.1290469647600258e+02 0 0 0
5545 159 4 0.0000000000000000e+00 -7.4324447777018534e+01 -3.8756454625815060e+01 -1.1311797371755553e+02 0 0 0
5543 159 4 0.0000000000000000e+00 -5.6187637750751286e+01 -4.3555429456367975e+01 -1.1409699951285225e+02 0 0 0
5542 159 4 0.0000000000000000e+00 -5.4906759825235859e+01 -3.7415369588646620e+01 -1.2187902586785663e+02 0 0 0
2088 60 2 0.0000000000000000e+00 -3.9080704618589557e+01 -3.9516633402039389e+01 -1.2216640655820380e+02 0 0 0
1616 47 2 0.0000000000000000e+00 -1.1283489295841498e+01 -3.6005716877135711e+01 -1.1942217830595754e+02 0 0 0
5531 159 4 0.0000000000000000e+00 -6.7872719553543575e+01 -2.2437565740631868e+01 -1.2383068199652411e+02 0 0 0
4750 136 3 0.0000000000000000e+00 -7.4477584924449388e+01 -2.8410626699575214e+01 -1.1837964804443314e+02 0 0 0
2085 60 2 0.0000000000000000e+00 -6.0932969939746883e+01 -2.1101135718224480e+01 -1.1328438065959031e+02 0 0 0
2086 60 2 0.0000000000000000e+00 -5.2505895296032364e+01 -2.5901599739216280e+01 -1.1559222223779568e+02 0 0 0
2087 60 2 0.0000000000000000e+00 -4.5789817133092782e+01 -3.1597015353838820e+01 -1.2041988592746738e+02 0 0 0
1538 44 2 0.0000000000000000e+00 -3.5426629436220765e+01 -2.0024847373327155e+01 -1.2261310073623790e+02 0 0 0
1539 44 2 0.0000000000000000e+00 -3.5037498547367761e+01 -2.9346668076348905e+01 -1.1961450921326121e+02 0 0 0
6327 181 4 0.0000000000000000e+00 -2.6312881783877941e+01 -2.8746114037620593e+01 -1.1156918492739702e+02 0 0 0
2081 60 2 0.0000000000000000e+00 -9.4646568662045439e+01 -8.6954179456727072e+00 -1.2003023443002307e+02 0 0 0
2083 60 1 0.0000000000000000e+00 -7.8281473725034360e+01 -1.7761374091241464e+01 -1.1998298316193619e+02 0 0 0
2082 60 2 0.0000000000000000e+00 -8.8247071667108528e+01 -1.5970162596095724e+01 -1.2165200212205058e+02 0 0 0
2084 60 2 0.0000000000000000e+00 -7.0144459029064350e+01 -1.9000388085838768e+01 -1.1504383010710578e+02 0 0 0
5532 159 4 0.0000000000000000e+00 -7.1205422324279311e+01 -1.2647292764650349e+01 -1.2381747097579395e+02 0 0 0
6326 181 4 0.0000000000000000e+00 -3.0932271963453289e+01 -1.9486429732489231e+01 -1.1210082642759988e+02 0 0 0
6325 181 3 0.0000000000000000e+00 -2.9193424788426228e+01 -1.0121831002195606e+01 -1.1596452743268306e+02 0 0 0
2079 60 2 0.0000000000000000e+00 -1.0783722411014294e+02 5.5860722006445860e+00 -1.1937039203222864e+02 0 0 0
2080 60 2 0.0000000000000000e+00 -1.0177021883636705e+02 -2.1175671222191998e+00 -1.2281284988719430e+02 0 0 0
5533 159 4 0.0000000000000000e+00 -7.7893701276830441e+01 -4.8424729501711807e+00 -1.2119810228248646e+02 0 0 0
5534 159 3 0.0000000000000000e+00 -8.4374454924594232e+01 2.4549931609752496e+00 -1.2110212700204467e+02 0 0 0
1534 44 2 0.0000000000000000e+00 -5.0019992720920847e+01 5.3079384430146721e+00 -1.2526297956049810e+02 0 0 0
6324 181 4 0.0000000000000000e+00 -3.5728252330652083e+01 -4.2643772824961532e+00 -1.1153032830327210e+02 0 0 0
2554 73 2 0.0000000000000000e+00 -1.5544537293481918e+02 9.6361422592322281e+00 -1.1763354723610755e+02 0 0 0
6337 182 4 0.0000000000000000e+00 -1.2797482735985555e+02 1.7387581153914141e+01 -1.1286857996953597e+02 0 0 0
6336 182 4 0.0000000000000000e+00 -1.2797331099180889e+02 8.2734525425671812e+00 -1.1712412629446783e+02 0 0 0
2078 60 2 0.0000000000000000e+00 -1.1272053404576808e+02 1.2261494061673517e+01 -1.2421361214562300e+02 0 0 0
6313 181 4 0.0000000000000000e+00 -9.5132283188523473e+01 1.0013087050614276e+01 -1.1984322499164091e+02 0 0 0
1803 52 1 0.0000000000000000e+00 -8.2096157705175642e+01 1.3642408232126071e+01 -1.1954034801652453e+02 0 0 0
1804 52 2 0.0000000000000000e+00 -7.2738407283271357e+01 1.7414379958325341e+01 -1.1640856707924985e+02 0 0 0
1533 44 2 0.0000000000000000e+00 -5.4882997023156030e+01 1.0570882264467585e+01 -1.1808721530400835e+02 0 0 0
1532 44 2 0.0000000000000000e+00 -5.0259662799152963e+01 1.7418149276555443e+01 -1.1318611789260257e+02 0 0 0
5123 147 4 0.0000000000000000e+00 -1.9740885533288875e+01 2.1159117287654130e+01 -1.1730149785647427e+02 0 0 0
1800 52 2 0.0000000000000000e+00 -1.0398278445455273e+02 2.9668055383678865e+01 -1.2050698373611216e+02 0 0 0
1799 52 2 0.0000000000000000e+00 -1.1244645065701337e+02 3.5102770656199716e+01 -1.1855808046960654e+02 0 0 0
1801 52 2 0.0000000000000000e+00 -9.7681183907553034e+01 2.3157987551902043e+01 -1.2469719999230382e+02 0 0 0
5901 169 4 0.0000000000000000e+00 -8.0343500251287267e+01 2.9944160505050636e+01 -1.1523662833554722e+02 0 0 0
5902 169 4 0.0000000000000000e+00 -8.3927845257243362e+01 3.4815799867183216e+01 -1.2329063315403965e+02 0 0 0
1805 52 2 0.0000000000000000e+00 -7.0094634512393654e+01 2.7024507123745220e+01 -1.1549558874494080e+02 0 0 0
3203 92 1 0.0000000000000000e+00 -5.9720498788103299e+01 3.3805095945758609e+01 -1.1454916206876284e+02 0 0 0
1763 51 2 0.0000000000000000e+00 -2.6470669926580747e+01 2.9978059162472888e+01 -1.2045930788981961e+02 0 0 0
5122 147 4 0.0000000000000000e+00 -1.2939818438819440e+01 2.8714532522285765e+01 -1.1688417037582592e+02 0 0 0
4200 120 4 0.0000000000000000e+00 -7.2227562682598546e+01 -1.0725561062591072e+02 -1.0293983544003873e+02 0 0 0
2221 64 2 0.0000000000000000e+00 -7.5851470684711046e+01 -7.8411375098692901e+01 -1.1066809366341745e+02 0 0 0
2220 64 2 0.0000000000000000e+00 -6.6742245678737603e+01 -7.8013888448459383e+01 -1.0667902603285084e+02 0 0 0
6504 186 4 0.0000000000000000e+00 -5.7079582906054519e+01 -8.5485291380407716e+01 -1.1092646909690309e+02 0 0 0
6503 186 4 0.0000000000000000e+00 -4.9350379324617968e+01 -8.1496563069494172e+01 -1.0643825607664411e+02 0 0 0
2099 60 2 0.0000000000000000e+00 -1.0411639167283118e+02 -7.1889962163049447e+01 -1.1064453846654673e+02 0 0 0
2098 60 2 0.0000000000000000e+00 -9.4137623831042561e+01 -6.8676762940739650e+01 -1.1014458701793330e+02 0 0 0
2097 60 1 0.0000000000000000e+00 -8.8566338760438683e+01 -6.1500084329591232e+01 -1.0680236366000128e+02 0 0 0
2093 60 2 0.0000000000000000e+00 -5.6557301058938812e+01 -6.9113952497696630e+01 -1.1124321646291496e+02 0 0 0
2219 64 2 0.0000000000000000e+00 -6.1682268904598814e+01 -7.3259019717141484e+01 -9.9189441962448285e+01 0 0 0
6502 186 4 0.0000000000000000e+00 -4.5259034709536166e+01 -7.3442547216510789e+01 -1.0174742835633272e+02 0 0 0
6514 187 3 0.0000000000000000e+00 -9.6862500001667016e+01 -5.5771916491141688e+01 -1.1082480442390356e+02 0 0 0
6515 187 4 0.0000000000000000e+00 -9.9530964466147410e+01 -5.6558200097227605e+01 -1.0156929232481504e+02 0 0 0
2096 60 2 0.0000000000000000e+00 -7.9952708215404897e+01 -5.5568329835035527e+01 -1.0712462940485555e+02 0 0 0
1372 40 2 0.0000000000000000e+00 -6.9753640401118574e+01 -6.0006760292098932e+01 -9.8158128412062609e+01 0 0 0
1373 40 2 0.0000000000000000e+00 -6.2415075624119332e+01 -5.3118867513993671e+01 -1.0069240875084148e+02 0 0 0
1613 47 2 0.0000000000000000e+00 -1.8604861289985109e+01 -5.1234256488584222e+01 -1.0573608361070674e+02 0 0 0
1614 47 1 0.0000000000000000e+00 -1.0280729465453760e+01 -5.1683445375802556e+01 -1.1130649985459314e+02 0 0 0
5546 159 4 0.0000000000000000e+00 -7.7594486523429609e+01 -4.2191669863753127e+01 -1.0458593429243680e+02 0 0 0
2211 64 2 0.0000000000000000e+00 -6.4890973614229665e+01 -3.5256089041144236e+01 -1.0468259850031028e+02 0 0 0
6328 181 4 0.0000000000000000e+00 -2.5390402168748157e+01 -3.5637398792055485e+01 -1.0538412971120626e+02 0 0 0
1615 47 2 0.0000000000000000e+00 -1.3298571813903404e+01 -4.1849567559686953e+01 -1.1123108191397394e+02 0 0 0
6298 180 4 0.0000000000000000e+00 -1.5171568632062693e+02 -2.3094207490743475e+01 -1.0456124781156572e+02 0 0 0
4751 136 4 0.0000000000000000e+00 -7.8192328558092981e+01 -3.0390053916029387e+01 -1.0990230736862694e+02 0 0 0
4752 136 4 0.0000000000000000e+00 -8.7287166942908584e+01 -2.9044205481258903e+01 -1.0546667717964544e+02 0 0 0
2210 64 2 0.0000000000000000e+00 -6.7368203876074972e+01 -2.5748517854251276e+01 -1.0247154245998496e+02 0 0 0
1540 44 2 0.0000000000000000e+00 -3.5482284461246010e+01 -3.3262374585248693e+01 -1.1022168128999076e+02 0 0 0
6329 181 4 0.0000000000000000e+00 -3.3281424555813715e+01 -3.2520669073386394e+01 -9.9743183485549295e+01 0 0 0
5768 165 4 0.0000000000000000e+00 -1.0840626168979641e+01 -2.9983990294390235e+01 -1.0576761539219720e+02 0 0 0
5769 165 4 0.0000000000000000e+00 -1.6482051750031371e+01 -3.1891336183920473e+01 -9.8435540979960081e+01 0 0 0
6483 186 4 0.0000000000000000e+00 -1.7700911420181694e+02 -8.7800752325532354e+00 -1.0086237275095863e+02 0 0 0
6484 186 4 0.0000000000000000e+00 -1.7273968337241604e+02 -1.6739652832468231e+01 -9.7724466002782876e+01 0 0 0
6296 180 4 0.0000000000000000e+00 -1.6683617267286593e+02 -1.2782322937427656e+01 -1.0413421765410527e+02 0 0 0
6297 180 3 0.0000000000000000e+00 -1.5792556051638948e+02 -1.6500815912565361e+01 -1.0770694888897572e+02 0 0 0
2552 73 1 0.0000000000000000e+00 -1.5449947818618222e+02 -6.6664624671899722e+00 -1.0687605445363725e+02 0 0 0
2551 73 2 0.0000000000000000e+00 -1.4800979616782192e+02 -1.2258085344326215e+01 -1.0140445836332941e+02 0 0 0
6316 181 4 0.0000000000000000e+00 -8.9057262577510542e+01 -8.5263711174263932e+00 -9.8494304720518528e+01 0 0 0
2209 64 1 0.0000000000000000e+00 -6.7437018151080309e+01 -1.5631293408124307e+01 -1.0387508627763457e+02 0 0 0
281 9 2 0.0000000000000000e+00 -4.7599158446251622e+01 -1.1498121565993355e+01 -1.0318247169273384e+02 0 0 0
2553 73 2 0.0000000000000000e+00 -1.5714300938777964e+02 2.5371828391867774e+00 -1.1022129238181958e+02 0 0 0
6315 181 4 0.0000000000000000e+00 -9.2421396923007933e+01 -4.8044350760438465e-01 -1.0451361213258102e+02 0 0 0
6314 181 4 0.0000000000000000e+00 -9.3235736536486471e+01 7.4601266530955588e+00 -1.1103102434713705e+02 0 0 0
2207 64 2 0.0000000000000000e+00 -6.6779759564044610e+01 4.0762634530866331e+00 -1.0507350943470873e+02 0 0 0
2208 64 2 0.0000000000000000e+00 -6.8835522153956845e+01 -5.7266269422325697e+00 -1.0291124812914889e+02 0 0 0
6323 181 4 0.0000000000000000e+00 -3.6119478742255332e+01 2.9375189328257529e+00 -1.0504028432354349e+02 0 0 0
6322 181 4 0.0000000000000000e+00 -4.2994148796028654e+01 3.9085220373045035e+00 -9.8317946700565969e+01 0 0 0
6537 187 4 0.0000000000000000e+00 -1.4192854166653134e+01 2.9619011435601141e+00 -1.1002218171709455e+02 0 0 0
6538 187 4 0.0000000000000000e+00 -1.4942054115957232e+01 -5.1240283670986537e+00 -1.0440247902818635e+02 0 0 0
6536 187 4 0.0000000000000000e+00 -1.7893447731605288e+01 6.7416525277769832e+00 -1.0211857770174656e+02 0 0 0
3310 95 2 0.0000000000000000e+00 -1.3045779535759550e+02 1.7370197655564073e+01 -1.0174840269122389e+02 0 0 0
3311 95 2 0.0000000000000000e+00 -1.2139844797630934e+02 1.4108909914694577e+01 -9.8868184266247980e+01 0 0 0
3312 95 2 0.0000000000000000e+00 -1.1179377453054565e+02 1.6487831642880899e+01 -1.0016068674261820e+02 0 0 0
2914 84 2 0.0000000000000000e+00 -8.3661025500996487e+01 1.7021998422511761e+01 -9.9214274704178465e+01 0 0 0
2206 64 2 0.0000000000000000e+00 -5.9080036092918078e+01 9.3118631086701669e+00 -1.0583123901198461e+02 0 0 0
5126 147 4 0.0000000000000000e+00 -4.1975291688394371e+01 1.5104850157054198e+01 -1.0267260574546886e+02 0 0 0
5124 147 4 0.0000000000000000e+00 -2.4760418349033095e+01 1.5707611778962351e+01 -1.1042786170832960e+02 0 0 0
5125 147 4 0.0000000000000000e+00 -3.3297653428895771e+01 1.3117832830366076e+01 -1.0749811652357323e+02 0 0 0
3309 95 2 0.0000000000000000e+00 -1.3846103825984187e+02 2.3681957741793653e+01 -9.9753580629900782e+01 0 0 0
6338 182 4 0.0000000000000000e+00 -1.2903070049570766e+02 2.6378277265128894e+01 -1.0911854011435956e+02 0 0 0
3313 95 2 0.0000000000000000e+00 -1.0406263057527548e+02 2.2294261234434693e+01 -1.0187818169719372e+02 0 0 0
3314 95 2 0.0000000000000000e+00 -9.7690594038574901e+01 3.0102899061034911e+01 -9.9359779195785208e+01 0 0 0
5899 169 4 0.0000000000000000e+00 -8.8725657793362856e+01 2.4542913515926529e+01 -1.0116207807015161e+02 0 0 0
5900 169 4 0.0000000000000000e+00 -8.4129037494543255e+01 2.2368309442947687e+01 -1.0922409716838207e+02 0 0 0
3202 92 2 0.0000000000000000e+00 -5.4350032716391432e+01 3.1971152465546808e+01 -1.0573955528544198e+02 0 0 0
1531 44 2 0.0000000000000000e+00 -4.2081904670032678e+01 2.2301899761643604e+01 -1.1072003097410929e+02 0 0 0
5127 147 4 0.0000000000000000e+00 -4.5248949236372653e+01 2.4636764686310798e+01 -1.0177702992120905e+02 0 0 0
5128 147 3 0.0000000000000000e+00 -4.4576095140236198e+01 3.2146059695431035e+01 -1.0725814354702823e+02 0 0 0
1530 44 1 0.0000000000000000e+00 -3.4756878901162992e+01 2.6419370225174042e+01 -1.0474066732458733e+02 0 0 0
1529 44 2 0.0000000000000000e+00 -2.7214388109258387e+01 2.8541804620453753e+01 -9.8137726879599640e+01 0 0 0
4199 120 4 0.0000000000000000e+00 -6.9036010190838027e+01 -1.0734148273581708e+02 -9.3646113605452427e+01 0 0 0
4198 120 4 0.0000000000000000e+00 -6.7021439351908157e+01 -9.9359761979382853e+01 -8.7695379571567756e+01 0 0 0
4197 120 3 0.0000000000000000e+00 -6.6697615533206090e+01 -8.9188104196967899e+01 -8.6647132590452060e+01 0 0 0
1369 40 1 0.0000000000000000e+00 -7.5993722886720889e+01 -8.3060367488967799e+01 -8.5449082323996763e+01 0 0 0
4196 120 4 0.0000000000000000e+00 -6.0986284648900309e+01 -8.1352416337892478e+01 -8.3753167899305197e+01 0 0 0
6494 186 4 0.0000000000000000e+00 -1.0779830056654099e+02 -6.3626787706870275e+01 -9.3992300446669390e+01 0 0 0
2521 73 2 0.0000000000000000e+00 -1.0403831060041574e+02 -6.9880131844346153e+01 -8.5971444401574956e+01 0 0 0
6495 186 4 0.0000000000000000e+00 -9.9784365701459791e+01 -6.9424006629489071e+01 -9.4477758533564042e+01 0 0 0
6496 186 4 0.0000000000000000e+00 -9.1567316651667809e+01 -6.5487226288025354e+01 -9.0277344259894178e+01 0 0 0
1370 40 2 0.0000000000000000e+00 -7.5701041871532723e+01 -7.3594971713119250e+01 -8.8001983323373835e+01 0 0 0
6497 186 4 0.0000000000000000e+00 -8.2358392631357802e+01 -6.5073772326746038e+01 -8.6152172552305998e+01 0 0 0