LAMMPS data file via write_data, version 5 Jun 2019, timestep = 360000000

7000 atoms
4 atom types
7285 bonds
3 bond types
6600 angles
2 angle types

-5.0000000000000000e+02 5.0000000000000000e+02 xlo xhi
-5.0000000000000000e+02 5.0000000000000000e+02 ylo yhi
-5.0000000000000000e+02 5.0000000000000000e+02 zlo zhi

Masses

1 1000
2 1000
3 1000
4 1000

Pair Coeffs # lj/cut

1 0.178 10
2 0.178 10
3 0.178 10
4 0.178 10

Angle Coeffs # cosine

1 2
2 2

Atoms # full

6511 187 4 0.0000000000000000e+00 -7.5223059043705831e+01 -2.6648228905593086e+01 -1.8342842204260918e+02 0 0 0
4445 127 4 0.0000000000000000e+00 -3.9379431252523347e+01 -3.0749669199020392e+01 -1.9612751366127563e+02 0 0 0
2228 64 2 0.0000000000000000e+00 -3.9875834329872482e+01 -2.7501895742630456e+01 -1.8326386178878025e+02 0 0 0
4444 127 4 0.0000000000000000e+00 -3.3296612881511230e+01 -2.4458985707436767e+01 -1.9184548260838216e+02 0 0 0
2230 64 1 0.0000000000000000e+00 -5.0917057731631353e+01 -1.1018657718060526e+01 -1.8541118718275717e+02 0 0 0
2229 64 2 0.0000000000000000e+00 -4.5774684669238887e+01 -1.9584879489968948e+01 -1.8602499203644007e+02 0 0 0
4442 127 3 0.0000000000000000e+00 -3.9698652609485691e+01 -8.9296865474816602e+00 -1.8464040528781061e+02 0 0 0
4443 127 4 0.0000000000000000e+00 -3.5020938639702138e+01 -1.4729470511513769e+01 -1.9154445857033275e+02 0 0 0
2231 64 2 0.0000000000000000e+00 -5.7570360714363979e+01 -6.7397158969021707e+00 -1.9106469062719100e+02 0 0 0
2232 64 2 0.0000000000000000e+00 -6.1859421512347751e+01 1.8673797921681943e+00 -1.9418382512470080e+02 0 0 0
2234 64 2 0.0000000000000000e+00 -6.5161215542889607e+01 1.9212471474282314e+01 -1.8642110797110615e+02 0 0 0
2233 64 2 0.0000000000000000e+00 -6.0315067382380782e+01 1.0693373530270815e+01 -1.8921378533724740e+02 0 0 0
6335 181 4 0.0000000000000000e+00 -6.2754721760772817e+01 -7.5522657550370170e+01 -1.7248408371657146e+02 0 0 0
1374 40 2 0.0000000000000000e+00 -3.2546849135391888e+01 -6.4517379533377962e+01 -1.6914271787041957e+02 0 0 0
6512 187 4 0.0000000000000000e+00 -8.0690361235607639e+01 -2.5019302776098716e+01 -1.7519949836073837e+02 0 0 0
2093 60 2 0.0000000000000000e+00 -5.1039478992342950e+01 -2.2879491520694657e+01 -1.7327343825475310e+02 0 0 0
2227 64 2 0.0000000000000000e+00 -3.6751627155717799e+01 -3.4530867056899794e+01 -1.7704961749400934e+02 0 0 0
2094 60 2 0.0000000000000000e+00 -5.6939081828350488e+01 -1.5411356351473930e+01 -1.7049818150593134e+02 0 0 0
4441 127 4 0.0000000000000000e+00 -4.3174321124918720e+01 -1.5894989866369424e+00 -1.7905202861023560e+02 0 0 0
4439 127 4 0.0000000000000000e+00 -5.5788788392996885e+01 1.3689808185159563e+01 -1.7915133392465970e+02 0 0 0
4440 127 4 0.0000000000000000e+00 -4.8996858139698041e+01 6.4718973915082625e+00 -1.7735328926462441e+02 0 0 0
6334 181 4 0.0000000000000000e+00 -5.5968962458046079e+01 -7.0743641329711821e+01 -1.6736592883414002e+02 0 0 0
1373 40 2 0.0000000000000000e+00 -2.6021311399237455e+01 -6.7019051457701337e+01 -1.6216087029305896e+02 0 0 0
2100 60 2 0.0000000000000000e+00 -8.3227914124238197e+01 -6.0864069059328664e+01 -1.5709675515484116e+02 0 0 0
2099 60 2 0.0000000000000000e+00 -8.3231054910235329e+01 -5.0750690422821087e+01 -1.5705966733270452e+02 0 0 0
6333 181 4 0.0000000000000000e+00 -5.2753482273202607e+01 -6.1682155003488759e+01 -1.6420875159071565e+02 0 0 0
6332 181 3 0.0000000000000000e+00 -5.3310534781658724e+01 -5.5835611603692151e+01 -1.5562510692780714e+02 0 0 0
1376 40 1 0.0000000000000000e+00 -4.8036300896812840e+01 -5.3043336671992421e+01 -1.6494489656492487e+02 0 0 0
1375 40 2 0.0000000000000000e+00 -4.1943480811733366e+01 -6.1144046723206991e+01 -1.6834591430638460e+02 0 0 0
2098 60 2 0.0000000000000000e+00 -8.3791753726832766e+01 -4.1303950395826739e+01 -1.5855609193283283e+02 0 0 0
1378 40 2 0.0000000000000000e+00 -6.4995838195839852e+01 -4.7409713406879710e+01 -1.5924870100704686e+02 0 0 0
1377 40 2 0.0000000000000000e+00 -5.6590518114245022e+01 -4.7816861685173379e+01 -1.6491753883737596e+02 0 0 0
2225 64 2 0.0000000000000000e+00 -4.1639982078510208e+01 -4.6464870038863801e+01 -1.6172471088644409e+02 0 0 0
2226 64 2 0.0000000000000000e+00 -3.7365784877758607e+01 -3.9633478419779962e+01 -1.6828405284828330e+02 0 0 0
6513 187 4 0.0000000000000000e+00 -8.5868281355224909e+01 -2.5413000321333161e+01 -1.6624771691531041e+02 0 0 0
6514 187 3 0.0000000000000000e+00 -8.8147758690073601e+01 -2.7645018452731254e+01 -1.5638649101302971e+02 0 0 0
2097 60 1 0.0000000000000000e+00 -7.9159606113425411e+01 -3.2752803246458136e+01 -1.6070255852402371e+02 0 0 0
2096 60 2 0.0000000000000000e+00 -7.0549340774863651e+01 -2.8265010656090542e+01 -1.6339020168195717e+02 0 0 0
2095 60 2 0.0000000000000000e+00 -6.4311260489290547e+01 -2.2066585093576020e+01 -1.6789324323997195e+02 0 0 0
2091 60 2 0.0000000000000000e+00 -3.8819585973571961e+01 -2.2702451870940202e+01 -1.5818952927931667e+02 0 0 0
5426 156 4 0.0000000000000000e+00 -4.7167474674477567e+01 -3.1130746253309930e+01 -1.5872623559333528e+02 0 0 0
2092 60 2 0.0000000000000000e+00 -4.6989948960948873e+01 -2.1631496073852968e+01 -1.6437822049520599e+02 0 0 0
1632 47 2 0.0000000000000000e+00 -1.4229281686713216e+01 -8.9030312689978413e+00 -1.5650764001653778e+02 0 0 0
2240 64 2 0.0000000000000000e+00 -5.5920013233479324e+01 8.5273232210215510e-01 -1.5589059124190479e+02 0 0 0
1630 47 2 0.0000000000000000e+00 -3.0778169576817195e+01 -2.2207914557378108e+00 -1.5781427256325915e+02 0 0 0
1631 47 2 0.0000000000000000e+00 -2.2628748004013488e+01 -6.6850571299202501e+00 -1.6178861720568298e+02 0 0 0
4744 136 4 0.0000000000000000e+00 -6.4701055936781856e+01 1.1314834092689667e+01 -1.5962673883623793e+02 0 0 0
4743 136 3 0.0000000000000000e+00 -5.8495290825504817e+01 1.5053978432952098e+01 -1.6608358024842215e+02 0 0 0
2239 64 2 0.0000000000000000e+00 -5.5769307447070751e+01 1.1008626935174972e+01 -1.5814688155271182e+02 0 0 0
1626 47 2 0.0000000000000000e+00 -4.2034647494821343e+01 1.3903656107434472e+01 -1.6110778539190679e+02 0 0 0
1627 47 2 0.0000000000000000e+00 -4.8292088329623155e+01 6.0375735813964031e+00 -1.6199079554534413e+02 0 0 0
4742 136 4 0.0000000000000000e+00 -4.9417104090514478e+01 1.6506287044612741e+01 -1.6829971533846293e+02 0 0 0
1625 47 2 0.0000000000000000e+00 -3.2757570671243037e+01 1.4280190925291638e+01 -1.6458903414734445e+02 0 0 0
6507 186 3 0.0000000000000000e+00 -4.2577300333257462e+01 -6.2991419873785482e+01 -1.4749502757864531e+02 0 0 0
6509 186 4 0.0000000000000000e+00 -3.2130887814311173e+01 -6.4485542367783111e+01 -1.4154653731458677e+02 0 0 0
1372 40 2 0.0000000000000000e+00 -2.0103955846619343e+01 -6.5461458560177263e+01 -1.5398328403766840e+02 0 0 0
1371 40 2 0.0000000000000000e+00 -1.9571079645431034e+01 -6.3447161339090201e+01 -1.4387988887117191e+02 0 0 0
2224 64 2 0.0000000000000000e+00 -4.1118392812538559e+01 -5.3823234827502525e+01 -1.5451145577260792e+02 0 0 0
2223 64 1 0.0000000000000000e+00 -4.8275717016055339e+01 -5.3716642933591800e+01 -1.4796096008863151e+02 0 0 0
6508 186 4 0.0000000000000000e+00 -3.3932188351828984e+01 -5.9227407736543618e+01 -1.5008139428258710e+02 0 0 0
1379 40 2 0.0000000000000000e+00 -6.7564108803481957e+01 -4.7465396738474205e+01 -1.4899166829113346e+02 0 0 0
6331 181 4 0.0000000000000000e+00 -5.7017250472431940e+01 -4.7905400573961032e+01 -1.5131934493446443e+02 0 0 0
6330 181 4 0.0000000000000000e+00 -5.3886636689683904e+01 -4.0944541399005516e+01 -1.4432515288616710e+02 0 0 0
5427 156 4 0.0000000000000000e+00 -4.0674806971897937e+01 -3.6480871665322994e+01 -1.5291507388306559e+02 0 0 0
5428 156 4 0.0000000000000000e+00 -3.0592318706708085e+01 -3.6212109633124399e+01 -1.5216287390526441e+02 0 0 0
1540 44 2 0.0000000000000000e+00 -2.3059278003804803e+01 -4.5208048615496814e+01 -1.5032447510389656e+02 0 0 0
1539 44 2 0.0000000000000000e+00 -1.7452294911880557e+01 -4.8972429814362471e+01 -1.4344171107868644e+02 0 0 0
5431 156 4 0.0000000000000000e+00 -1.0412740316638841e+01 -3.9206046708763701e+01 -1.4430121529757056e+02 0 0 0
6515 187 4 0.0000000000000000e+00 -8.9074031889111339e+01 -2.8229583060904666e+01 -1.4626126332590422e+02 0 0 0
5429 156 3 0.0000000000000000e+00 -2.4454101312537812e+01 -2.8896049240816570e+01 -1.5131578011603142e+02 0 0 0
6328 181 4 0.0000000000000000e+00 -3.6972078541802858e+01 -3.3432215474847261e+01 -1.4302627389764680e+02 0 0 0
5430 156 4 0.0000000000000000e+00 -1.8917913070897043e+01 -3.4511324257427688e+01 -1.4605123141835807e+02 0 0 0
2089 60 2 0.0000000000000000e+00 -3.5643365780038359e+01 -1.3177463660414984e+01 -1.4477683181880337e+02 0 0 0
2090 60 1 0.0000000000000000e+00 -3.2731161674471601e+01 -2.1144494443225401e+01 -1.4985193611594801e+02 0 0 0
2087 60 2 0.0000000000000000e+00 -5.2276301766373791e+01 -7.3162739325150223e+00 -1.4323969357454001e+02 0 0 0
5543 159 4 0.0000000000000000e+00 -6.4083378493242307e+01 1.9165496645187530e+00 -1.4184491770600297e+02 0 0 0
2088 60 2 0.0000000000000000e+00 -4.2201209181209208e+01 -6.6098179241704855e+00 -1.4308207728240654e+02 0 0 0
1629 47 2 0.0000000000000000e+00 -3.5255305207381646e+01 4.3376602731346123e+00 -1.5116893006782456e+02 0 0 0
4745 136 4 0.0000000000000000e+00 -6.9456395419608967e+01 1.2396584123900546e+01 -1.5080968775852239e+02 0 0 0
5542 159 4 0.0000000000000000e+00 -5.6967780828072797e+01 7.1790677906698832e+00 -1.4698690328581785e+02 0 0 0
1628 47 1 0.0000000000000000e+00 -4.4417852112848550e+01 6.2442627246643561e+00 -1.5330742983142224e+02 0 0 0
5541 159 3 0.0000000000000000e+00 -4.9926282406244667e+01 1.4286566447095304e+01 -1.4771362353870197e+02 0 0 0
5540 159 4 0.0000000000000000e+00 -4.1364159126379491e+01 1.8865373905189948e+01 -1.4512590370317110e+02 0 0 0
3020 87 2 0.0000000000000000e+00 -2.5626606181607102e+01 1.1811574157790867e+01 -1.5010036920062166e+02 0 0 0
3019 87 2 0.0000000000000000e+00 -3.3658447512044035e+01 1.7105765315650039e+01 -1.5330317309917919e+02 0 0 0
3021 87 1 0.0000000000000000e+00 -1.5543102764465317e+01 1.0147935162250441e+01 -1.4838374723282990e+02 0 0 0
6505 186 4 0.0000000000000000e+00 -5.3703084995198338e+01 -6.3436232940802761e+01 -1.3251145589843972e+02 0 0 0
6510 186 4 0.0000000000000000e+00 -3.5751312281552416e+01 -6.9864996023797900e+01 -1.3433900898827685e+02 0 0 0
1369 40 1 0.0000000000000000e+00 -1.5438656076647307e+01 -7.5673339399713015e+01 -1.3396241070197982e+02 0 0 0
1370 40 2 0.0000000000000000e+00 -1.9721108527527988e+01 -6.6255948468540709e+01 -1.3458426941438083e+02 0 0 0
2221 64 2 0.0000000000000000e+00 -4.7494863192417924e+01 -5.0025348428489210e+01 -1.2943866070869046e+02 0 0 0
2222 64 2 0.0000000000000000e+00 -5.0135881201645539e+01 -4.9302781690434102e+01 -1.3936419839291659e+02 0 0 0
6506 186 4 0.0000000000000000e+00 -4.6765878685953325e+01 -6.0715347012321693e+01 -1.3860264644068766e+02 0 0 0
2214 64 2 0.0000000000000000e+00 -7.5322919774529254e+01 -4.0060075215151137e+01 -1.3366207911173549e+02 0 0 0
1380 40 2 0.0000000000000000e+00 -6.1293590636116370e+01 -4.6806435376556919e+01 -1.4045207332638637e+02 0 0 0
1381 40 2 0.0000000000000000e+00 -6.0427993655127295e+01 -4.0215248417208230e+01 -1.3330224962498204e+02 0 0 0
6329 181 4 0.0000000000000000e+00 -4.5937390507846651e+01 -3.7206661261120757e+01 -1.3970143004560597e+02 0 0 0
1538 44 2 0.0000000000000000e+00 -1.3147037288340865e+01 -4.5003475927094485e+01 -1.3464792032854402e+02 0 0 0
6326 181 4 0.0000000000000000e+00 -2.1032837694838520e+01 -3.8155711682795072e+01 -1.3351445206009626e+02 0 0 0
2554 73 2 0.0000000000000000e+00 -1.4157437907212699e+02 -2.2849877208577716e+01 -1.3197535022984107e+02 0 0 0
2555 73 2 0.0000000000000000e+00 -1.3979449460021138e+02 -3.1201993475807733e+01 -1.3708069008352047e+02 0 0 0
2521 73 2 0.0000000000000000e+00 -9.3997790467242666e+01 -2.3644279922630936e+01 -1.2982674497826315e+02 0 0 0
6516 187 4 0.0000000000000000e+00 -8.4013712992735819e+01 -2.3523356790433745e+01 -1.3898170137732751e+02 0 0 0
2213 64 2 0.0000000000000000e+00 -6.7529700335327377e+01 -3.4025295744473397e+01 -1.3675277089650737e+02 0 0 0
2212 64 2 0.0000000000000000e+00 -5.9141884490974405e+01 -2.8593285211992786e+01 -1.3821868718565648e+02 0 0 0
2210 64 2 0.0000000000000000e+00 -4.4416889672226169e+01 -2.2285944854835815e+01 -1.3373265328780897e+02 0 0 0
6327 181 4 0.0000000000000000e+00 -2.7688166899218331e+01 -3.3269614283456065e+01 -1.3888958262417574e+02 0 0 0
6318 181 3 0.0000000000000000e+00 -2.8393095977243661e+01 -2.4209216992128884e+01 -1.3198815800293599e+02 0 0 0
6517 187 4 0.0000000000000000e+00 -7.8092590933032042e+01 -2.1455991718336939e+01 -1.3123120081602343e+02 0 0 0
5546 159 4 0.0000000000000000e+00 -6.5391495316613515e+01 -2.0008235228163159e+01 -1.2897110035593300e+02 0 0 0
5545 159 4 0.0000000000000000e+00 -7.0852884311414471e+01 -1.2822631859973198e+01 -1.3232254508330297e+02 0 0 0
2211 64 2 0.0000000000000000e+00 -5.3783052948020966e+01 -2.0114390107818235e+01 -1.3596448246609253e+02 0 0 0
6317 181 4 0.0000000000000000e+00 -2.5659848117705742e+01 -1.4889915514125178e+01 -1.3445417077246390e+02 0 0 0
4549 130 4 0.0000000000000000e+00 -1.3366937482652231e+01 -1.1083654964509384e+01 -1.3236742448722069e+02 0 0 0
5544 159 4 0.0000000000000000e+00 -7.1157298673518923e+01 -4.4745648841097241e+00 -1.3804673621261475e+02 0 0 0
2085 60 2 0.0000000000000000e+00 -6.2856880701627972e+01 -6.9473559577846056e-01 -1.2924133313938276e+02 0 0 0
2086 60 2 0.0000000000000000e+00 -5.6106316373607171e+01 -1.0785799803763703e+00 -1.3697435188510326e+02 0 0 0
6315 181 4 0.0000000000000000e+00 -3.6395040505785282e+01 1.0938929737006017e-01 -1.3819403538602339e+02 0 0 0
6316 181 4 0.0000000000000000e+00 -2.9175873011855014e+01 -5.6811282012668380e+00 -1.3627700030672705e+02 0 0 0
4548 130 4 0.0000000000000000e+00 -1.3818635904412151e+01 -2.1583180368347659e+00 -1.3608131660883251e+02 0 0 0
2548 73 2 0.0000000000000000e+00 -1.1069722040588455e+02 1.7247411525960032e+01 -1.3430842033434192e+02 0 0 0
2547 73 2 0.0000000000000000e+00 -1.0214951431383719e+02 1.5902089641872758e+01 -1.3084811318077598e+02 0 0 0
4747 136 4 0.0000000000000000e+00 -7.3837025144443473e+01 8.1895329906585506e+00 -1.3267071434464376e+02 0 0 0
4746 136 4 0.0000000000000000e+00 -6.9557460704568001e+01 1.1024324878955673e+01 -1.4110981743961096e+02 0 0 0
2077 60 2 0.0000000000000000e+00 -6.4516409139565624e+01 1.2624333785808689e+01 -1.3198585879575577e+02 0 0 0
6312 181 4 0.0000000000000000e+00 -5.9642087570088080e+01 1.7091443543732815e+01 -1.3970773610704930e+02 0 0 0
6313 181 4 0.0000000000000000e+00 -5.1431550443832414e+01 1.1848262054943570e+01 -1.3743961978046818e+02 0 0 0
6314 181 4 0.0000000000000000e+00 -4.3604711126047874e+01 6.1113775123935392e+00 -1.3752675675547979e+02 0 0 0
4547 130 3 0.0000000000000000e+00 -1.9148930708033433e+01 5.7551679295693008e+00 -1.3886871046395430e+02 0 0 0
4546 130 4 0.0000000000000000e+00 -1.6743931767637637e+01 9.5930512280470008e+00 -1.2993245831354838e+02 0 0 0
4196 120 4 0.0000000000000000e+00 -1.9209139600503445e+01 -6.8050848009756308e+01 -1.2108570821821874e+02 0 0 0
4197 120 3 0.0000000000000000e+00 -1.0913538009543325e+01 -7.2541211658767509e+01 -1.2455759735344097e+02 0 0 0
6502 186 4 0.0000000000000000e+00 -7.4520767882972393e+01 -5.3848171189436712e+01 -1.1889057802509994e+02 0 0 0
6503 186 4 0.0000000000000000e+00 -6.4748182570849991e+01 -5.5668318326479593e+01 -1.1848047633130753e+02 0 0 0
6504 186 4 0.0000000000000000e+00 -5.6890868837678156e+01 -5.8269779253855653e+01 -1.2423477638453839e+02 0 0 0
4195 120 4 0.0000000000000000e+00 -2.5026656137778257e+01 -6.0447630350795450e+01 -1.1855932684215050e+02 0 0 0
6324 181 4 0.0000000000000000e+00 -2.2989426902613516e+01 -5.1423234886931176e+01 -1.2078944754417292e+02 0 0 0
4199 120 4 0.0000000000000000e+00 -1.1246263330809334e+01 -5.8304286527493829e+01 -1.1452811422477299e+02 0 0 0
6499 186 4 0.0000000000000000e+00 -9.7040910096530055e+01 -4.0841992928031715e+01 -1.1460458627425062e+02 0 0 0
6501 186 4 0.0000000000000000e+00 -8.2313273576252328e+01 -4.8564538110118633e+01 -1.2243208939959251e+02 0 0 0
6500 186 3 0.0000000000000000e+00 -8.9922903098531137e+01 -4.2657040030425421e+01 -1.2170896845990070e+02 0 0 0
2216 64 1 0.0000000000000000e+00 -7.9895334381127071e+01 -4.1119638005552758e+01 -1.1639336229954633e+02 0 0 0
2215 64 2 0.0000000000000000e+00 -8.1408880202721178e+01 -3.9427170405931427e+01 -1.2584028400233893e+02 0 0 0
1383 40 1 0.0000000000000000e+00 -6.8817809849795054e+01 -3.6192675784544790e+01 -1.1823102643445783e+02 0 0 0
1382 40 2 0.0000000000000000e+00 -6.1221782686257896e+01 -4.0640849827506408e+01 -1.2340095616086600e+02 0 0 0
2220 64 2 0.0000000000000000e+00 -4.7793323618613783e+01 -4.8087679110612171e+01 -1.1957019645639585e+02 0 0 0
2206 64 2 0.0000000000000000e+00 -3.8171874161516882e+01 -4.4867137289763612e+01 -1.2315572931760562e+02 0 0 0
2207 64 2 0.0000000000000000e+00 -3.9215176571929213e+01 -3.6312964504277005e+01 -1.1722962135697311e+02 0 0 0
6325 181 3 0.0000000000000000e+00 -1.9478169653235813e+01 -4.3004233762889235e+01 -1.2477216205226689e+02 0 0 0
6300 180 4 0.0000000000000000e+00 -1.2098842635229551e+02 -2.7178469521760405e+01 -1.1685484542720856e+02 0 0 0
6299 180 4 0.0000000000000000e+00 -1.2408292661056115e+02 -2.2917870873971999e+01 -1.2532195255509951e+02 0 0 0
2522 73 2 0.0000000000000000e+00 -9.8294094731788277e+01 -2.6052601330719305e+01 -1.2121599572108670e+02 0 0 0
5547 159 4 0.0000000000000000e+00 -6.1386829667659846e+01 -2.6941254501460946e+01 -1.2326278571393091e+02 0 0 0
5548 159 3 0.0000000000000000e+00 -5.8427552762076054e+01 -3.3042698783993551e+01 -1.1569462705824918e+02 0 0 0
2208 64 2 0.0000000000000000e+00 -4.3156898058677996e+01 -2.7004003003035351e+01 -1.1877770649283035e+02 0 0 0
2209 64 1 0.0000000000000000e+00 -3.8167453194058538e+01 -2.2328199955660292e+01 -1.2624569115662139e+02 0 0 0
6319 181 4 0.0000000000000000e+00 -2.8136161093998393e+01 -3.1170208725192694e+01 -1.2510591556340989e+02 0 0 0
6320 181 4 0.0000000000000000e+00 -2.4276457505748521e+01 -3.2726734928355938e+01 -1.1632742822469518e+02 0 0 0
2553 73 2 0.0000000000000000e+00 -1.4077363977405236e+02 -1.4681037102610956e+01 -1.2626838381559590e+02 0 0 0
6297 180 3 0.0000000000000000e+00 -1.3717923916323628e+02 -1.1809404016483622e+01 -1.1709687255973898e+02 0 0 0
6298 180 4 0.0000000000000000e+00 -1.2879013494501586e+02 -1.4315267742250176e+01 -1.2224532318227082e+02 0 0 0
6253 179 4 0.0000000000000000e+00 -9.0665538836026172e+01 -1.3996615104004166e+01 -1.2140827270629606e+02 0 0 0
6252 179 4 0.0000000000000000e+00 -8.3589424464457210e+01 -1.9584198603832156e+01 -1.1698997250075716e+02 0 0 0
6518 187 4 0.0000000000000000e+00 -7.4321170123627326e+01 -1.9218382327030614e+01 -1.2262626606986666e+02 0 0 0
4550 130 4 0.0000000000000000e+00 -1.6240814854074682e+01 -1.9743778955088008e+01 -1.2694456357274494e+02 0 0 0
1532 44 2 0.0000000000000000e+00 -1.1736101463031357e+01 -1.4270892380405073e+01 -1.1576356736230281e+02 0 0 0
6295 180 4 0.0000000000000000e+00 -1.5196989940612295e+02 8.3260061869090429e-01 -1.1447183092862717e+02 0 0 0
6296 180 4 0.0000000000000000e+00 -1.4585356024331065e+02 -7.0873363098777062e+00 -1.1581790094166310e+02 0 0 0
2552 73 1 0.0000000000000000e+00 -1.3622525054949230e+02 -5.8299436319223581e+00 -1.2635957926581821e+02 0 0 0
2551 73 2 0.0000000000000000e+00 -1.2657389983034473e+02 -2.8299612715488442e+00 -1.2360012230393986e+02 0 0 0
6255 179 3 0.0000000000000000e+00 -9.9261543729638390e+01 2.4898670079098273e+00 -1.2608292608677878e+02 0 0 0
6254 179 4 0.0000000000000000e+00 -9.7577906279101356e+01 -6.6591947449517104e+00 -1.2367578415870801e+02 0 0 0
2544 73 2 0.0000000000000000e+00 -9.7642737000387129e+01 -1.3879786972415713e+00 -1.1425248842164454e+02 0 0 0
2545 73 1 0.0000000000000000e+00 -9.0944893809550308e+01 5.0377060052320592e+00 -1.1946581459518636e+02 0 0 0
2084 60 2 0.0000000000000000e+00 -6.6065519377744081e+01 -2.0915227457695553e+00 -1.1996674813593600e+02 0 0 0
4749 136 4 0.0000000000000000e+00 -7.5137621732504741e+01 2.5484656523590852e+00 -1.1539601924362967e+02 0 0 0
2910 84 2 0.0000000000000000e+00 -4.7003330267622900e+01 1.5945460938784484e+00 -1.1792805334016698e+02 0 0 0
4545 130 4 0.0000000000000000e+00 -1.4181279788714617e+01 1.4437082356807691e+00 -1.2654224337118114e+02 0 0 0
1530 44 1 0.0000000000000000e+00 -1.0598954750493423e+01 4.5692511468533281e+00 -1.1407094885657418e+02 0 0 0
2550 73 2 0.0000000000000000e+00 -1.2269904414238268e+02 6.0036244217890751e+00 -1.2617556581602494e+02 0 0 0
2549 73 2 0.0000000000000000e+00 -1.1751592811844515e+02 1.4099284309826489e+01 -1.2773459639070289e+02 0 0 0
6256 179 4 0.0000000000000000e+00 -1.0348038149840576e+02 9.5037525965662955e+00 -1.2088749125896153e+02 0 0 0
2546 73 2 0.0000000000000000e+00 -9.4912853037103631e+01 1.3469321739420561e+01 -1.2415050492024461e+02 0 0 0
4748 136 4 0.0000000000000000e+00 -7.6212852481280962e+01 9.0909768435937988e+00 -1.2269596950181995e+02 0 0 0
2078 60 2 0.0000000000000000e+00 -6.3977714502547080e+01 1.6226108861594664e+01 -1.2369515387137740e+02 0 0 0
2079 60 2 0.0000000000000000e+00 -6.3346807884063345e+01 1.2327872558455107e+01 -1.1488337457685850e+02 0 0 0
2911 84 2 0.0000000000000000e+00 -4.7054120829005846e+01 1.1069518820318482e+01 -1.1475564809719474e+02 0 0 0
5130 147 4 0.0000000000000000e+00 -2.7729434581194077e+01 1.2646470088540079e+01 -1.2469425013356452e+02 0 0 0
5129 147 4 0.0000000000000000e+00 -2.1910032141495911e+01 1.1052769762378411e+01 -1.1690727200784667e+02 0 0 0
6231 179 4 0.0000000000000000e+00 -1.0125614688444485e+02 -1.3778617343784157e+02 -1.0081094836018366e+02 0 0 0
2804 81 1 0.0000000000000000e+00 -7.4003711143107992e+01 -1.2440186020121392e+02 -1.0251476899994390e+02 0 0 0
2802 81 2 0.0000000000000000e+00 -5.5643460542293262e+01 -1.1668699831568772e+02 -1.0152447842224889e+02 0 0 0
2801 81 2 0.0000000000000000e+00 -5.0559656188939229e+01 -1.0937696559166224e+02 -1.0672330862356112e+02 0 0 0
4831 139 4 0.0000000000000000e+00 -1.2874083536537656e+01 -6.8684122799145314e+01 -1.0806291871719525e+02 0 0 0
4194 120 4 0.0000000000000000e+00 -2.9632516983121377e+01 -5.6285243454085375e+01 -1.1051948575867414e+02 0 0 0
4193 120 4 0.0000000000000000e+00 -3.2832487974237289e+01 -4.9309535689135274e+01 -1.0424747361646230e+02 0 0 0
6323 181 4 0.0000000000000000e+00 -1.8474974451307695e+01 -5.1514089204553962e+01 -1.1203245319281326e+02 0 0 0
6498 186 4 0.0000000000000000e+00 -1.0129072942638767e+02 -4.6785413754921585e+01 -1.0792565012650169e+02 0 0 0
6249 179 4 0.0000000000000000e+00 -8.9356520173708802e+01 -4.2536643974046669e+01 -1.0152554941000363e+02 0 0 0
2217 64 2 0.0000000000000000e+00 -7.1687917934438687e+01 -4.5134019628434835e+01 -1.1182167580745629e+02 0 0 0
2219 64 2 0.0000000000000000e+00 -5.3545097606604571e+01 -4.3144966990969095e+01 -1.1257117495897505e+02 0 0 0
2218 64 2 0.0000000000000000e+00 -6.2058006662526822e+01 -4.8410338731734072e+01 -1.1144605888392539e+02 0 0 0
6322 181 4 0.0000000000000000e+00 -2.2359328617314560e+01 -4.3281325718253747e+01 -1.0722396946493680e+02 0 0 0
2523 73 2 0.0000000000000000e+00 -1.0003834051538225e+02 -2.6768692588371369e+01 -1.1155199371236769e+02 0 0 0
2524 73 1 0.0000000000000000e+00 -1.0404826836177135e+02 -3.3581088187344449e+01 -1.0533310836477362e+02 0 0 0
6250 179 4 0.0000000000000000e+00 -9.2845224754013643e+01 -3.4274809237545959e+01 -1.0783607457866802e+02 0 0 0
6251 179 4 0.0000000000000000e+00 -8.7522646653481118e+01 -2.7496348606539307e+01 -1.1273145886419670e+02 0 0 0
2541 73 2 0.0000000000000000e+00 -8.6169185940007694e+01 -2.3027564137155668e+01 -1.0386501002082927e+02 0 0 0
1384 40 2 0.0000000000000000e+00 -7.0160690843774105e+01 -3.0028583033524907e+01 -1.1064165104583222e+02 0 0 0
1385 40 2 0.0000000000000000e+00 -6.9820763730727535e+01 -2.2632737719175235e+01 -1.0404546326653069e+02 0 0 0
5549 159 4 0.0000000000000000e+00 -4.9578267089062379e+01 -3.3868719734955548e+01 -1.1057908308276959e+02 0 0 0
5550 159 4 0.0000000000000000e+00 -4.0718447199687716e+01 -3.2974842063035261e+01 -1.0862762892706121e+02 0 0 0
5551 159 4 0.0000000000000000e+00 -3.1947121763104676e+01 -3.1789341740627108e+01 -1.0382455175812497e+02 0 0 0
6321 181 4 0.0000000000000000e+00 -2.1762623771911503e+01 -3.2965295738629131e+01 -1.0634311572211102e+02 0 0 0
5775 165 4 0.0000000000000000e+00 -1.7453839816143962e+01 -2.2888120913556822e+01 -1.0939282983730483e+02 0 0 0
6492 186 4 0.0000000000000000e+00 -1.0384377211541523e+02 -1.9788134006112170e+01 -1.0342622061792244e+02 0 0 0
2543 73 2 0.0000000000000000e+00 -9.7839150056661580e+01 -1.1085305884802207e+01 -1.1346753857752054e+02 0 0 0
2542 73 2 0.0000000000000000e+00 -9.3393568555145649e+01 -1.6308701044405598e+01 -1.0663850599760639e+02 0 0 0
6519 187 4 0.0000000000000000e+00 -7.1980124970791977e+01 -1.6167764759474064e+01 -1.1367492029812762e+02 0 0 0
1386 40 2 0.0000000000000000e+00 -6.8848783817564637e+01 -1.3534061385364668e+01 -1.0031015499241633e+02 0 0 0
6520 187 4 0.0000000000000000e+00 -6.2731405391061578e+01 -1.2014731981229883e+01 -1.1135714581856685e+02 0 0 0
281 9 2 0.0000000000000000e+00 -3.9001225777676041e+01 -1.7498423587855893e+01 -1.1385799428889216e+02 0 0 0
282 9 2 0.0000000000000000e+00 -3.4014989622098433e+01 -1.8271281570777752e+01 -1.0517334167872684e+02 0 0 0
4752 136 4 0.0000000000000000e+00 -9.5597078863719119e+01 -4.2728820441698119e+00 -1.0186036412583172e+02 0 0 0
4751 136 4 0.0000000000000000e+00 -8.5686753165410266e+01 -4.0440214615999821e+00 -1.0197957900411957e+02 0 0 0
4750 136 3 0.0000000000000000e+00 -7.6665313401918112e+01 -3.1339369025227097e+00 -1.0776998980720283e+02 0 0 0
2083 60 1 0.0000000000000000e+00 -6.6500177932000028e+01 1.7461853183457082e-01 -1.0960237211741492e+02 0 0 0
2082 60 2 0.0000000000000000e+00 -6.2606791062526263e+01 -7.0572037276663580e-01 -1.0080538031191968e+02 0 0 0
6521 187 3 0.0000000000000000e+00 -5.5480671491826143e+01 -5.8685743939743853e+00 -1.0805940638746112e+02 0 0 0
2909 84 1 0.0000000000000000e+00 -4.5284485025206159e+01 -6.1342575264354018e+00 -1.1222681550817914e+02 0 0 0
2908 84 2 0.0000000000000000e+00 -4.0598776540284184e+01 -1.3724853383090381e+00 -1.0553650932311731e+02 0 0 0
6522 187 4 0.0000000000000000e+00 -5.0771936829495033e+01 -7.1952361354363059e-02 -1.0102849874701363e+02 0 0 0
2907 84 2 0.0000000000000000e+00 -3.2591904265323798e+01 5.1271732844134545e+00 -1.0440295141077004e+02 0 0 0
5770 165 4 0.0000000000000000e+00 -1.3392753653305208e+01 -2.5135374176321341e+00 -1.0191779411907585e+02 0 0 0
1531 44 2 0.0000000000000000e+00 -1.3852365078408713e+01 -4.9105516505290838e+00 -1.1251358403196198e+02 0 0 0
6293 180 4 0.0000000000000000e+00 -1.5222879707816494e+02 1.6449505367216009e+01 -1.0981251213954900e+02 0 0 0
6294 180 4 0.0000000000000000e+00 -1.5752813378299066e+02 8.0960190387048954e+00 -1.1068395649145234e+02 0 0 0
6257 179 4 0.0000000000000000e+00 -1.1002812577285106e+02 1.2278654011955478e+01 -1.1358533131313986e+02 0 0 0
6258 179 4 0.0000000000000000e+00 -1.1539097675749625e+02 1.3961777314757052e+01 -1.0498421818619538e+02 0 0 0
5900 169 4 0.0000000000000000e+00 -8.0249635246595659e+01 1.4786835834738135e+01 -1.0811291181210149e+02 0 0 0
5899 169 4 0.0000000000000000e+00 -7.5331682499188560e+01 6.5915760610945897e+00 -1.0329426327481953e+02 0 0 0
2080 60 2 0.0000000000000000e+00 -5.8353814243324635e+01 9.2886698741060574e+00 -1.0703868847781159e+02 0 0 0
2912 84 2 0.0000000000000000e+00 -4.7009884334224601e+01 1.3247733322461773e+01 -1.0437950813699729e+02 0 0 0
2906 84 2 0.0000000000000000e+00 -3.0194824708618597e+01 1.4141034169974509e+01 -1.0290599627151961e+02 0 0 0
5128 147 3 0.0000000000000000e+00 -1.7738391186773239e+01 1.0093542812854231e+01 -1.0765309876592765e+02 0 0 0
2805 81 2 0.0000000000000000e+00 -8.0167910560784748e+01 -1.3107797899344865e+02 -9.7790188900684129e+01 0 0 0
2806 81 2 0.0000000000000000e+00 -8.5837655166358843e+01 -1.3386119009820879e+02 -8.9660093805511920e+01 0 0 0
3991 115 4 0.0000000000000000e+00 -6.7749592974337673e+01 -1.3605795350331627e+02 -8.6661456939244474e+01 0 0 0
6232 179 4 0.0000000000000000e+00 -9.4140297779725401e+01 -1.3101117941602951e+02 -9.7779688666034943e+01 0 0 0
6233 179 4 0.0000000000000000e+00 -8.7483113931830033e+01 -1.2399352460986758e+02 -9.4884057341975264e+01 0 0 0
6234 179 3 0.0000000000000000e+00 -7.8055253357457929e+01 -1.1902429686569080e+02 -9.4215629581705770e+01 0 0 0
2803 81 2 0.0000000000000000e+00 -6.5102170375645372e+01 -1.1974326127423251e+02 -9.9403782597390290e+01 0 0 0
6235 179 4 0.0000000000000000e+00 -7.1276276797604339e+01 -1.1193112956502985e+02 -9.6175838570888018e+01 0 0 0
6236 179 4 0.0000000000000000e+00 -7.1222471200276203e+01 -1.0546892371386711e+02 -8.8112558197313888e+01 0 0 0
3996 115 4 0.0000000000000000e+00 -4.2019561520124519e+01 -1.0796332685150166e+02 -8.9291745864583092e+01 0 0 0
3997 115 4 0.0000000000000000e+00 -4.1816379832231370e+01 -9.7727021417304954e+01 -8.8761728553937573e+01 0 0 0
3998 115 4 0.0000000000000000e+00 -3.4656431337569202e+01 -9.1208961106390788e+01 -9.0429347524909730e+01 0 0 0
6242 179 4 0.0000000000000000e+00 -4.0164666566512636e+01 -7.9545061140717181e+01 -8.8937672912415636e+01 0 0 0
3999 115 4 0.0000000000000000e+00 -2.5131601167467856e+01 -8.6814655449490928e+01 -9.1019839184111447e+01 0 0 0
4000 115 4 0.0000000000000000e+00 -1.5038630877275059e+01 -8.4786810845542433e+01 -9.0572491070922482e+01 0 0 0
6244 179 4 0.0000000000000000e+00 -4.9645642846812329e+01 -6.5666051113786850e+01 -8.8104530223086414e+01 0 0 0
6243 179 4 0.0000000000000000e+00 -4.9770574586890000e+01 -7.5117683481955908e+01 -8.9881000052126325e+01 0 0 0
4832 139 4 0.0000000000000000e+00 -1.8378761941729756e+01 -6.6699026788402705e+01 -1.0006615113868645e+02 0 0 0
4833 139 4 0.0000000000000000e+00 -2.1772678265574289e+01 -6.7061832931780259e+01 -9.0834227847519330e+01 0 0 0
3744 107 4 0.0000000000000000e+00 -1.2238900807335173e+02 -5.3079129788521222e+01 -9.2038882772441156e+01 0 0 0