LAMMPS data file via write_data, version 5 Jun 2019, timestep = 330000000

7000 atoms
4 atom types
7285 bonds
3 bond types
6600 angles
2 angle types

-5.0000000000000000e+02 5.0000000000000000e+02 xlo xhi
-5.0000000000000000e+02 5.0000000000000000e+02 ylo yhi
-5.0000000000000000e+02 5.0000000000000000e+02 zlo zhi

Masses

1 1000
2 1000
3 1000
4 1000

Pair Coeffs # lj/cut

1 0.178 10
2 0.178 10
3 0.178 10
4 0.178 10

Angle Coeffs # cosine

1 2
2 2

Atoms # full

2229 64 2 0.0000000000000000e+00 -3.2378614667352537e+01 -2.6894716889436250e+01 -1.9122656543792056e+02 0 0 0
2227 64 2 0.0000000000000000e+00 -2.7400053257596973e+01 -4.1320634235186127e+01 -1.8100106982099089e+02 0 0 0
4444 127 4 0.0000000000000000e+00 -3.7181613413283728e+01 -2.6671827014316310e+01 -1.7881290069774676e+02 0 0 0
2228 64 2 0.0000000000000000e+00 -2.7827182329551487e+01 -3.4694388970107411e+01 -1.8800971475505872e+02 0 0 0
4443 127 4 0.0000000000000000e+00 -4.4156891366352447e+01 -2.0048057934647129e+01 -1.8118556386143385e+02 0 0 0
4442 127 3 0.0000000000000000e+00 -4.4474323570159335e+01 -1.1954471911229573e+01 -1.8676078393690554e+02 0 0 0
2230 64 1 0.0000000000000000e+00 -3.4591161512432656e+01 -1.7295322434699241e+01 -1.8712984970737318e+02 0 0 0
4440 127 4 0.0000000000000000e+00 -5.7137650048042929e+01 1.9762293589308912e+00 -1.8549531138210907e+02 0 0 0
4441 127 4 0.0000000000000000e+00 -4.8542969850709689e+01 -2.3798664909054841e+00 -1.8438673524384967e+02 0 0 0
2231 64 2 0.0000000000000000e+00 -3.2694796769355023e+01 -8.4135896259576715e+00 -1.8243277159942940e+02 0 0 0
2232 64 2 0.0000000000000000e+00 -3.5425887872298006e+01 -7.5489059833411942e-01 -1.8736375802817898e+02 0 0 0
4439 127 4 0.0000000000000000e+00 -6.1671722667752036e+01 1.0498281239996595e+01 -1.8280244482181439e+02 0 0 0
2233 64 2 0.0000000000000000e+00 -4.0398240919805069e+01 7.2264825509910953e+00 -1.8492629608539704e+02 0 0 0
2234 64 2 0.0000000000000000e+00 -4.0085203331283637e+01 1.3951604474128777e+01 -1.7770879525584942e+02 0 0 0
4438 127 4 0.0000000000000000e+00 -6.8405550334189059e+01 1.7753989462998035e+01 -1.8086012097303890e+02 0 0 0
2235 64 2 0.0000000000000000e+00 -3.9941661736206008e+01 2.4305472696335574e+01 -1.7726420968171675e+02 0 0 0
6510 186 4 0.0000000000000000e+00 -4.2656151639985843e+01 -6.5943162652273116e+01 -1.6349850116628608e+02 0 0 0
6509 186 4 0.0000000000000000e+00 -3.4286444387079676e+01 -6.0486941329728516e+01 -1.6573608910156634e+02 0 0 0
4445 127 4 0.0000000000000000e+00 -3.1677218616699548e+01 -3.3693616209662125e+01 -1.7357121362742973e+02 0 0 0
5426 156 4 0.0000000000000000e+00 -5.2783596465858551e+01 -1.6421169114496834e+01 -1.7313465740607151e+02 0 0 0
5427 156 4 0.0000000000000000e+00 -4.4243389639180137e+01 -1.8048426855330110e+01 -1.6839228340005221e+02 0 0 0
5429 156 3 0.0000000000000000e+00 -2.6420639448329389e+01 -2.3896887754574365e+01 -1.6682237668665715e+02 0 0 0
5428 156 4 0.0000000000000000e+00 -3.4431121617902278e+01 -1.8723560489137775e+01 -1.6922557941600402e+02 0 0 0
2090 60 1 0.0000000000000000e+00 -2.7097031979962431e+01 -1.3564077762954811e+01 -1.6322822960046827e+02 0 0 0
5541 159 3 0.0000000000000000e+00 -5.6324725810430515e+01 6.2498327048798263e-01 -1.6993764999748069e+02 0 0 0
2089 60 2 0.0000000000000000e+00 -3.6968289877617416e+01 -1.0640773025999000e+01 -1.6299663190331773e+02 0 0 0
1630 47 2 0.0000000000000000e+00 -3.3724369853951856e+01 -5.2346194440543243e+00 -1.7277893829438247e+02 0 0 0
2073 60 2 0.0000000000000000e+00 -1.0783693510726700e+02 1.1011048035878309e+01 -1.6639875030647372e+02 0 0 0
2074 60 2 0.0000000000000000e+00 -1.0282156982514113e+02 2.5422962229980333e+00 -1.6427077976167655e+02 0 0 0
2075 60 2 0.0000000000000000e+00 -9.5214185410464111e+01 9.1062046031995081e+00 -1.6722751949880455e+02 0 0 0
5540 159 4 0.0000000000000000e+00 -5.6173836178861109e+01 9.7699665942802145e+00 -1.6543756508047298e+02 0 0 0
1628 47 1 0.0000000000000000e+00 -4.8018728114517693e+01 7.3215850091246786e+00 -1.7466364438045301e+02 0 0 0
4549 130 4 0.0000000000000000e+00 -4.0130826075002780e+01 1.0487503782416878e+01 -1.6554647030731851e+02 0 0 0
1629 47 2 0.0000000000000000e+00 -3.8867406324465158e+01 3.2052347955352092e+00 -1.7301119554486908e+02 0 0 0
4548 130 4 0.0000000000000000e+00 -3.3883357827607483e+01 3.3773514049014266e+00 -1.6287908971135658e+02 0 0 0
2066 60 2 0.0000000000000000e+00 -1.2712209538110449e+02 1.8571506630959327e+01 -1.6590547755620480e+02 0 0 0
2072 60 2 0.0000000000000000e+00 -1.1040335217935903e+02 2.1053223199675465e+01 -1.6630465343959764e+02 0 0 0
6310 181 4 0.0000000000000000e+00 -9.8024562527045561e+01 2.7220469511634889e+01 -1.7196256037026930e+02 0 0 0
6311 181 3 0.0000000000000000e+00 -9.2121779015306444e+01 2.1172990243404733e+01 -1.6703946243982179e+02 0 0 0
4437 127 4 0.0000000000000000e+00 -7.3508882286749326e+01 2.3980748479484149e+01 -1.7499996299239461e+02 0 0 0
4745 136 4 0.0000000000000000e+00 -6.1190887474925255e+01 2.0992870750122506e+01 -1.6637963692962194e+02 0 0 0
1627 47 2 0.0000000000000000e+00 -5.0987089163614272e+01 1.6078228443045674e+01 -1.7030947611953249e+02 0 0 0
1626 47 2 0.0000000000000000e+00 -4.4384227019910441e+01 2.2765879902529292e+01 -1.6720219651589335e+02 0 0 0
6309 181 4 0.0000000000000000e+00 -1.0224213435005473e+02 3.4077838706869230e+01 -1.6520202041006584e+02 0 0 0
4436 127 4 0.0000000000000000e+00 -7.5611229038404531e+01 3.2213796319972452e+01 -1.6981726939082984e+02 0 0 0
4435 127 3 0.0000000000000000e+00 -7.7848910148412855e+01 4.1398015896344610e+01 -1.6714928095952234e+02 0 0 0
4744 136 4 0.0000000000000000e+00 -5.8784804504925205e+01 2.9719953471544621e+01 -1.6958591760586359e+02 0 0 0
4743 136 3 0.0000000000000000e+00 -5.3777517293460079e+01 3.7117636774396402e+01 -1.6565297611220018e+02 0 0 0
1625 47 2 0.0000000000000000e+00 -4.0704349221824401e+01 3.0787636032364951e+01 -1.6238682441760884e+02 0 0 0
2237 64 1 0.0000000000000000e+00 -4.3663530003564254e+01 4.0580378525472085e+01 -1.6911519377533116e+02 0 0 0
2236 64 2 0.0000000000000000e+00 -3.8660334786930612e+01 3.3928028752892509e+01 -1.7504548655225742e+02 0 0 0
4434 127 4 0.0000000000000000e+00 -8.0460699305225347e+01 5.0658255519866159e+01 -1.6519693325428042e+02 0 0 0
2238 64 2 0.0000000000000000e+00 -4.4615171514397773e+01 5.0245739232719878e+01 -1.7225816994524951e+02 0 0 0
1375 40 2 0.0000000000000000e+00 -4.4440645627643924e+01 -5.3913053393354772e+01 -1.4995150593573649e+02 0 0 0
6508 186 4 0.0000000000000000e+00 -3.2065464795852684e+01 -5.9532267412805368e+01 -1.5601936667822926e+02 0 0 0
6335 181 4 0.0000000000000000e+00 -6.2342923929409672e+01 -4.5736218728032789e+01 -1.5893779386561513e+02 0 0 0
6334 181 4 0.0000000000000000e+00 -5.2978010973090825e+01 -4.9455887576643008e+01 -1.5742050438246497e+02 0 0 0
6333 181 4 0.0000000000000000e+00 -4.4605356386810179e+01 -4.5025960258843689e+01 -1.5321594045483781e+02 0 0 0
1376 40 1 0.0000000000000000e+00 -3.5910629519477645e+01 -4.8921323246668955e+01 -1.4912373520727962e+02 0 0 0
1377 40 2 0.0000000000000000e+00 -2.9665652855975889e+01 -4.1314150738919771e+01 -1.5121797202150987e+02 0 0 0
2092 60 2 0.0000000000000000e+00 -3.5199194917283691e+01 -2.5196556956033032e+01 -1.5821950487651716e+02 0 0 0
2093 60 2 0.0000000000000000e+00 -4.3136961975891808e+01 -2.1959269361328847e+01 -1.5285151845836467e+02 0 0 0
2091 60 2 0.0000000000000000e+00 -2.6259666008733969e+01 -2.1404304390454147e+01 -1.5742602108914610e+02 0 0 0
5542 159 4 0.0000000000000000e+00 -5.5146933705909660e+01 -5.2874706447058291e+00 -1.6176751504576001e+02 0 0 0
5543 159 4 0.0000000000000000e+00 -5.4158408418321123e+01 -5.1323847828017009e+00 -1.5186102444505661e+02 0 0 0
2088 60 2 0.0000000000000000e+00 -4.2312861114327575e+01 -2.8271170457448647e+00 -1.6137396726128190e+02 0 0 0
2087 60 2 0.0000000000000000e+00 -5.0356268418405385e+01 1.4790198362989400e+00 -1.5739753094143870e+02 0 0 0
4547 130 3 0.0000000000000000e+00 -2.7444478695077237e+01 -1.9127808016255112e+00 -1.5798491310605166e+02 0 0 0
2076 60 1 0.0000000000000000e+00 -8.9979814449619809e+01 1.3167466407947305e+01 -1.5990772455004787e+02 0 0 0
4748 136 4 0.0000000000000000e+00 -8.0811765712143256e+01 7.6711677860519289e+00 -1.5236814029864323e+02 0 0 0
4747 136 4 0.0000000000000000e+00 -7.1721981623542916e+01 1.0177206563848065e+01 -1.5445048103705332e+02 0 0 0
2086 60 2 0.0000000000000000e+00 -5.9456373447064848e+01 3.6173248231135400e+00 -1.5334600447715471e+02 0 0 0
5539 159 4 0.0000000000000000e+00 -5.6462735999321552e+01 1.4737435536830795e+01 -1.5606533493854988e+02 0 0 0
4550 130 4 0.0000000000000000e+00 -4.4667124380172908e+01 1.0859034537866648e+01 -1.5668840250675078e+02 0 0 0
3020 87 2 0.0000000000000000e+00 -3.1548363576063213e+01 1.3684892161049023e+01 -1.5794090204850730e+02 0 0 0
2067 60 2 0.0000000000000000e+00 -1.3129245351178494e+02 1.8095413799054981e+01 -1.5686701243293271e+02 0 0 0
2069 60 1 0.0000000000000000e+00 -1.3170515163351746e+02 2.6830225855093030e+01 -1.5002835345082144e+02 0 0 0
2071 60 2 0.0000000000000000e+00 -1.1687661720728046e+02 2.6905666665787304e+01 -1.6150606222449315e+02 0 0 0
2077 60 2 0.0000000000000000e+00 -8.9520696140507539e+01 1.6623752207844870e+01 -1.5012397986885500e+02 0 0 0
6312 181 4 0.0000000000000000e+00 -8.5772939771974166e+01 2.5356678447788781e+01 -1.6038374225201454e+02 0 0 0
4746 136 4 0.0000000000000000e+00 -6.7331686016542250e+01 1.6187116153562989e+01 -1.6070434250377915e+02 0 0 0
6313 181 4 0.0000000000000000e+00 -7.8591959753225666e+01 2.4556428472804505e+01 -1.5409237154213102e+02 0 0 0
3016 87 2 0.0000000000000000e+00 -6.8187106867214155e+01 2.7345570242218031e+01 -1.5697547536035827e+02 0 0 0
5538 159 4 0.0000000000000000e+00 -6.0966949047156355e+01 2.1167697587296349e+01 -1.5012684337706884e+02 0 0 0
3017 87 2 0.0000000000000000e+00 -5.8034100617032074e+01 2.8129321661553590e+01 -1.5842271717781179e+02 0 0 0
3018 87 2 0.0000000000000000e+00 -4.9331213360669231e+01 2.3492902272027099e+01 -1.5773956193672649e+02 0 0 0
3019 87 2 0.0000000000000000e+00 -4.0685350098799162e+01 1.8925539951330794e+01 -1.5636941176775093e+02 0 0 0
1623 47 2 0.0000000000000000e+00 -2.7461820880121433e+01 2.7574583753107358e+01 -1.5022399965709781e+02 0 0 0
2070 60 2 0.0000000000000000e+00 -1.2390447720245291e+02 3.0860397056906365e+01 -1.5597110477538945e+02 0 0 0
6308 181 4 0.0000000000000000e+00 -1.0472049013186852e+02 4.1477433645263140e+01 -1.5882473884797056e+02 0 0 0
3012 87 2 0.0000000000000000e+00 -9.5633762424394291e+01 3.8587632904752994e+01 -1.5112923801893584e+02 0 0 0
3014 87 1 0.0000000000000000e+00 -8.1681483175967116e+01 4.0054750692997082e+01 -1.5624512984390321e+02 0 0 0
3015 87 2 0.0000000000000000e+00 -7.3754055205134861e+01 3.5149811588519370e+01 -1.5968615118500031e+02 0 0 0
5537 159 4 0.0000000000000000e+00 -6.2383687434180445e+01 3.1554963637176741e+01 -1.4969460127533242e+02 0 0 0
4742 136 4 0.0000000000000000e+00 -4.7723694142046696e+01 3.9056631234569288e+01 -1.5815095111102340e+02 0 0 0
1624 47 2 0.0000000000000000e+00 -3.7158432129182565e+01 3.0044951411474919e+01 -1.5307185452591196e+02 0 0 0
4740 136 4 0.0000000000000000e+00 -3.8480142613734984e+01 4.2455001973882773e+01 -1.5019009680027972e+02 0 0 0
6307 181 4 0.0000000000000000e+00 -1.0962953547862934e+02 5.0445836527927248e+01 -1.5790820854731362e+02 0 0 0
3013 87 2 0.0000000000000000e+00 -8.9350909538650498e+01 4.5555579275908059e+01 -1.5368803265782714e+02 0 0 0
4741 136 4 0.0000000000000000e+00 -3.9956474904018883e+01 4.5457131325578402e+01 -1.5952757124713904e+02 0 0 0
1372 40 2 0.0000000000000000e+00 -3.9917450618621992e+01 -7.9459255483862918e+01 -1.4293402863818082e+02 0 0 0
1373 40 2 0.0000000000000000e+00 -4.7090025669698704e+01 -7.2884208394935371e+01 -1.4505369720610176e+02 0 0 0
1374 40 2 0.0000000000000000e+00 -4.8047121665884106e+01 -6.2286418249827840e+01 -1.4575470123593112e+02 0 0 0
6504 186 4 0.0000000000000000e+00 -4.1763017975256950e+01 -5.7654626128550504e+01 -1.3541984485052612e+02 0 0 0
6507 186 3 0.0000000000000000e+00 -2.9194654804073437e+01 -6.2872521864074010e+01 -1.4725249522083871e+02 0 0 0
6506 186 4 0.0000000000000000e+00 -2.7640300143458621e+01 -6.4656805567245414e+01 -1.3802238642623172e+02 0 0 0
6503 186 4 0.0000000000000000e+00 -4.8733906220218927e+01 -5.0466106994411064e+01 -1.3540243917493009e+02 0 0 0
6332 181 3 0.0000000000000000e+00 -4.0444503247041361e+01 -3.9115161349742344e+01 -1.4673419868192676e+02 0 0 0
1379 40 2 0.0000000000000000e+00 -2.7768095564998042e+01 -4.0380618118599138e+01 -1.3847387799596126e+02 0 0 0
2096 60 2 0.0000000000000000e+00 -6.3904564685840420e+01 -2.5996633759731125e+01 -1.3677287411686166e+02 0 0 0
6331 181 4 0.0000000000000000e+00 -4.4147695600868644e+01 -3.0189872473098347e+01 -1.4606451237384999e+02 0 0 0
6330 181 4 0.0000000000000000e+00 -3.5821754814728649e+01 -2.5920753438085288e+01 -1.4394667565471354e+02 0 0 0
2100 60 2 0.0000000000000000e+00 -9.6410922624020586e+01 -1.9006561301816724e+01 -1.3736941159553339e+02 0 0 0
2095 60 2 0.0000000000000000e+00 -5.6032633648659598e+01 -1.9101394911151239e+01 -1.3720354837943833e+02 0 0 0
2094 60 2 0.0000000000000000e+00 -5.0471162147725387e+01 -2.0461894064775947e+01 -1.4575351988733780e+02 0 0 0
6329 181 4 0.0000000000000000e+00 -3.1838167098508261e+01 -1.8214694807137480e+01 -1.4139526854454638e+02 0 0 0
2084 60 2 0.0000000000000000e+00 -7.4933339101063908e+01 1.0712726413176299e+00 -1.4009597826261273e+02 0 0 0
1540 44 2 0.0000000000000000e+00 -6.4593699708139553e+01 -3.5949796511974599e+00 -1.3684710054939509e+02 0 0 0
5544 159 4 0.0000000000000000e+00 -5.1597601074952124e+01 -4.2278965433088409e+00 -1.4255246961924644e+02 0 0 0
6328 181 4 0.0000000000000000e+00 -2.7496186633962377e+01 -9.6448313909037147e+00 -1.3862035783783207e+02 0 0 0
4749 136 4 0.0000000000000000e+00 -8.6703407285000011e+01 6.7905531631013112e+00 -1.4395196850149765e+02 0 0 0
2085 60 2 0.0000000000000000e+00 -6.6707665703982158e+01 3.9035673006004812e+00 -1.4641283375394522e+02 0 0 0
1539 44 2 0.0000000000000000e+00 -5.9239009376650053e+01 4.3640191752879840e+00 -1.3583683234588375e+02 0 0 0
6325 181 3 0.0000000000000000e+00 -3.5118769811200927e+01 1.2224190468807564e+01 -1.3834983266277879e+02 0 0 0
1621 47 1 0.0000000000000000e+00 -2.6184653102434222e+01 1.5880732696419077e+01 -1.3500530903149343e+02 0 0 0
6300 180 4 0.0000000000000000e+00 -1.3823869747492043e+02 1.8418395443672736e+01 -1.3633687659549668e+02 0 0 0
2068 60 2 0.0000000000000000e+00 -1.3663894244320613e+02 1.8399015650370199e+01 -1.4839413972331630e+02 0 0 0
6299 180 4 0.0000000000000000e+00 -1.3473074852965260e+02 2.7326191551925195e+01 -1.3859190861229376e+02 0 0 0
5913 169 4 0.0000000000000000e+00 -1.2104725069039014e+02 1.8304783630366774e+01 -1.4099866487777442e+02 0 0 0
5912 169 3 0.0000000000000000e+00 -1.2114687524825780e+02 2.7257688668287784e+01 -1.4565823027095757e+02 0 0 0
5914 169 4 0.0000000000000000e+00 -1.1168993488084038e+02 1.8250530363051336e+01 -1.3730165911626503e+02 0 0 0
5915 169 4 0.0000000000000000e+00 -1.0189862997102669e+02 1.9946497533077398e+01 -1.3525351450605623e+02 0 0 0
2078 60 2 0.0000000000000000e+00 -8.3822014848589703e+01 2.1995925455195955e+01 -1.4347798985341834e+02 0 0 0
6314 181 4 0.0000000000000000e+00 -7.2797853999902586e+01 2.3119231400390795e+01 -1.4640797316534656e+02 0 0 0
6315 181 4 0.0000000000000000e+00 -6.6609832724450754e+01 2.7438396853314082e+01 -1.4120450844876612e+02 0 0 0
6324 181 4 0.0000000000000000e+00 -3.6399118858321131e+01 2.1288344413922005e+01 -1.3758411990478183e+02 0 0 0
5911 169 4 0.0000000000000000e+00 -1.2441712753224760e+02 3.6635663311706352e+01 -1.4572809054939472e+02 0 0 0
3011 87 2 0.0000000000000000e+00 -9.5042794541221852e+01 2.9805676877872756e+01 -1.4749101598886804e+02 0 0 0
2079 60 2 0.0000000000000000e+00 -8.1895166066839096e+01 3.0650215923436342e+01 -1.3953552109806239e+02 0 0 0
5535 159 4 0.0000000000000000e+00 -7.4299759510551098e+01 4.0610627561996502e+01 -1.4111630869746983e+02 0 0 0
5536 159 4 0.0000000000000000e+00 -6.5876167388014053e+01 4.0497484591470375e+01 -1.4670797857924128e+02 0 0 0
4739 136 4 0.0000000000000000e+00 -3.4668187240332735e+01 4.1847667665850473e+01 -1.4041894661767620e+02 0 0 0
6323 181 4 0.0000000000000000e+00 -3.7715872320772313e+01 3.0663944828385294e+01 -1.3587369318271624e+02 0 0 0
5910 169 4 0.0000000000000000e+00 -1.2293336939997576e+02 4.6423024591729231e+01 -1.4297401057259322e+02 0 0 0
5909 169 4 0.0000000000000000e+00 -1.2351239131119513e+02 5.6310582206461106e+01 -1.4525168570383101e+02 0 0 0
1803 52 1 0.0000000000000000e+00 -8.4553447648651712e+01 5.2541085458074498e+01 -1.3534938566781361e+02 0 0 0
1804 52 2 0.0000000000000000e+00 -7.4918880538688995e+01 5.2696390630327876e+01 -1.3933727727316949e+02 0 0 0
1805 52 2 0.0000000000000000e+00 -6.6625837473140706e+01 5.6310938983795822e+01 -1.3540577257304227e+02 0 0 0
4199 120 4 0.0000000000000000e+00 -5.6567980364477485e+01 -8.8956562906709962e+01 -1.2265423563001671e+02 0 0 0
6237 179 4 0.0000000000000000e+00 -3.3958838131159759e+01 -9.0545383951605743e+01 -1.2147017992005335e+02 0 0 0
6236 179 4 0.0000000000000000e+00 -2.5914416270461341e+01 -8.4483067770890045e+01 -1.2551189830292709e+02 0 0 0
1371 40 2 0.0000000000000000e+00 -4.2645868242370142e+01 -7.5147254585932316e+01 -1.3436651423532592e+02 0 0 0
1370 40 2 0.0000000000000000e+00 -5.0369482288641080e+01 -7.8839020037364591e+01 -1.2872570215904480e+02 0 0 0
6511 187 4 0.0000000000000000e+00 -7.6225156772497726e+01 -5.3836548559936936e+01 -1.3288184198730610e+02 0 0 0
3745 107 4 0.0000000000000000e+00 -7.2960934288066895e+01 -5.5852623795537404e+01 -1.2265622057855147e+02 0 0 0
6505 186 4 0.0000000000000000e+00 -3.4254097606186924e+01 -6.2558309419000167e+01 -1.3035522802131433e+02 0 0 0
6512 187 4 0.0000000000000000e+00 -7.6901112077931089e+01 -4.5822310909248728e+01 -1.2731492853187264e+02 0 0 0
6513 187 4 0.0000000000000000e+00 -7.0359746622904183e+01 -3.8776800782760304e+01 -1.2725629721913951e+02 0 0 0
6502 186 4 0.0000000000000000e+00 -5.0842410622393011e+01 -4.5170339023580787e+01 -1.2729621755149680e+02 0 0 0
2526 73 2 0.0000000000000000e+00 -1.0318391081083873e+02 -3.1750083862855423e+01 -1.2646591473319563e+02 0 0 0
6514 187 3 0.0000000000000000e+00 -6.7447167511055127e+01 -3.0467783028459884e+01 -1.2240855564785775e+02 0 0 0
6501 186 4 0.0000000000000000e+00 -5.1557685758112363e+01 -3.5303087744846408e+01 -1.2615617127203932e+02 0 0 0
1380 40 2 0.0000000000000000e+00 -2.9743481121850333e+01 -3.6917094450328044e+01 -1.2964693613028945e+02 0 0 0
2525 73 2 0.0000000000000000e+00 -1.0254359718563501e+02 -2.1408164630075486e+01 -1.2578094977717460e+02 0 0 0
2099 60 2 0.0000000000000000e+00 -8.8822322442765540e+01 -1.9621038206427254e+01 -1.3031710693779451e+02 0 0 0
2097 60 1 0.0000000000000000e+00 -7.1240132907607119e+01 -2.3704113137882921e+01 -1.3081798168676863e+02 0 0 0
2098 60 2 0.0000000000000000e+00 -7.9448640601839415e+01 -2.0182348306221197e+01 -1.2591960161083294e+02 0 0 0
2214 64 2 0.0000000000000000e+00 -3.4377431948698813e+01 -1.7764476972221033e+01 -1.2300455424759532e+02 0 0 0
5545 159 4 0.0000000000000000e+00 -5.3224935859084184e+01 -4.0764069753494452e+00 -1.3311045960830901e+02 0 0 0
5546 159 4 0.0000000000000000e+00 -4.7772762297924125e+01 -6.4895484588875769e+00 -1.2566041097912523e+02 0 0 0
6327 181 4 0.0000000000000000e+00 -3.0396056643744263e+01 -1.4943412751316092e+00 -1.3313493378398366e+02 0 0 0
4750 136 3 0.0000000000000000e+00 -8.8655550208471851e+01 3.8797885435227557e+00 -1.3456077277478116e+02 0 0 0
4751 136 4 0.0000000000000000e+00 -9.3192546057076726e+01 7.5813284874096327e+00 -1.2580395064319782e+02 0 0 0
2082 60 2 0.0000000000000000e+00 -7.9126385175599594e+01 1.1452712164103303e+01 -1.2382274531064455e+02 0 0 0
2083 60 1 0.0000000000000000e+00 -7.8156314787973741e+01 4.2914730793092026e+00 -1.3095633831115543e+02 0 0 0
6317 181 4 0.0000000000000000e+00 -6.3630479325959087e+01 1.5781631433061516e+01 -1.2539865139095950e+02 0 0 0
1538 44 2 0.0000000000000000e+00 -4.9943326324126687e+01 8.2698212992442368e+00 -1.3386977010010392e+02 0 0 0
1537 44 1 0.0000000000000000e+00 -4.3748546398895485e+01 1.5835265954586452e+01 -1.3207337786433735e+02 0 0 0
6326 181 4 0.0000000000000000e+00 -3.1793301197650454e+01 7.4500460212349573e+00 -1.3021953035624551e+02 0 0 0
1536 44 2 0.0000000000000000e+00 -3.5781280001310826e+01 1.5825988002577834e+01 -1.2632976933239297e+02 0 0 0
5881 169 4 0.0000000000000000e+00 -1.1982760444567583e+02 1.8596663302533155e+01 -1.2363066780231573e+02 0 0 0
2081 60 2 0.0000000000000000e+00 -8.0454441990321413e+01 2.1093279597535350e+01 -1.2626418112422216e+02 0 0 0
6316 181 4 0.0000000000000000e+00 -6.6577512284520694e+01 2.0530481430570575e+01 -1.3329399418520907e+02 0 0 0
2080 60 2 0.0000000000000000e+00 -7.6089459635954000e+01 2.8036539786913622e+01 -1.3157516100978026e+02 0 0 0
4735 136 4 0.0000000000000000e+00 -2.5953293740861106e+01 1.6768960079595917e+01 -1.2446306821327420e+02 0 0 0
2553 73 2 0.0000000000000000e+00 -1.4958834487656358e+02 4.2845410057519807e+01 -1.2374429370651774e+02 0 0 0
6298 180 4 0.0000000000000000e+00 -1.3997941200182461e+02 3.0929057123185412e+01 -1.3079525261573988e+02 0 0 0
6297 180 3 0.0000000000000000e+00 -1.3756803385967245e+02 3.8395873508686648e+01 -1.2462042063924642e+02 0 0 0
5531 159 4 0.0000000000000000e+00 -1.0671485885544338e+02 4.1224218906583872e+01 -1.2709722132744400e+02 0 0 0
5532 159 4 0.0000000000000000e+00 -9.7005962729360775e+01 3.9781579116430159e+01 -1.2494924345307011e+02 0 0 0
5533 159 4 0.0000000000000000e+00 -8.7969710876366776e+01 4.1405371525310159e+01 -1.2687348448498763e+02 0 0 0
5534 159 3 0.0000000000000000e+00 -8.0457275712522758e+01 4.1802153201839467e+01 -1.3378957284617002e+02 0 0 0
4738 136 4 0.0000000000000000e+00 -3.1534158488422324e+01 3.9076578220772220e+01 -1.3186578917652682e+02 0 0 0
6322 181 4 0.0000000000000000e+00 -3.9329063930857664e+01 3.4546048498380173e+01 -1.2737246141911633e+02 0 0 0
2554 73 2 0.0000000000000000e+00 -1.4854097877675301e+02 4.9975468847323256e+01 -1.3126729652467097e+02 0 0 0
1802 52 2 0.0000000000000000e+00 -9.4757125470829621e+01 5.2374991724854581e+01 -1.3387512124304183e+02 0 0 0
1801 52 2 0.0000000000000000e+00 -1.0430269046314464e+02 5.5517505974700910e+01 -1.3207167212751708e+02 0 0 0
4200 120 4 0.0000000000000000e+00 -4.8805123119107542e+01 -9.3459707878990926e+01 -1.1765745480844139e+02 0 0 0
4198 120 4 0.0000000000000000e+00 -6.5458802876711417e+01 -8.5963183981371614e+01 -1.2117321389848750e+02 0 0 0
1369 40 1 0.0000000000000000e+00 -5.3459723730754881e+01 -8.0941423203775031e+01 -1.1992933206981769e+02 0 0 0
6238 179 4 0.0000000000000000e+00 -3.6215155703347321e+01 -8.9011868461090813e+01 -1.1189341146360125e+02 0 0 0
4196 120 4 0.0000000000000000e+00 -6.8128658608984523e+01 -6.9417882204948398e+01 -1.1228635453035891e+02 0 0 0
4197 120 3 0.0000000000000000e+00 -6.3574186871699766e+01 -7.7181794041171429e+01 -1.1720155205587729e+02 0 0 0
1368 40 2 0.0000000000000000e+00 -5.4513134305583193e+01 -7.2726190029166190e+01 -1.1436996424505232e+02 0 0 0
1367 40 2 0.0000000000000000e+00 -4.9943388439313750e+01 -6.3584744431258954e+01 -1.1755149175296243e+02 0 0 0
1366 40 2 0.0000000000000000e+00 -4.7719046710779878e+01 -5.7647501450638195e+01 -1.0991333183829444e+02 0 0 0
1611 47 2 0.0000000000000000e+00 -3.7176430455039025e+01 -5.5622805457714783e+01 -1.0977475661657004e+02 0 0 0
3744 107 4 0.0000000000000000e+00 -7.3822388103197895e+01 -5.1037490609297237e+01 -1.1391875516207459e+02 0 0 0
2217 64 2 0.0000000000000000e+00 -3.9024748432152890e+01 -4.2391428534433253e+01 -1.1775139309392688e+02 0 0 0
2218 64 2 0.0000000000000000e+00 -3.1876651037678830e+01 -4.9599222132706359e+01 -1.1945353616935486e+02 0 0 0
2527 73 2 0.0000000000000000e+00 -1.0011762546071301e+02 -3.7404868283468048e+01 -1.1837019345193713e+02 0 0 0
6495 186 4 0.0000000000000000e+00 -9.6982550857291201e+01 -2.6797632119319374e+01 -1.1200768581676591e+02 0 0 0
2528 73 2 0.0000000000000000e+00 -9.3345108783054869e+01 -3.7368199997426160e+01 -1.1094822534377099e+02 0 0 0
6496 186 4 0.0000000000000000e+00 -8.7709708356852246e+01 -3.0129758126923974e+01 -1.1100714471589497e+02 0 0 0
6497 186 4 0.0000000000000000e+00 -8.1297187886196269e+01 -3.7187970977760038e+01 -1.1480042179599570e+02 0 0 0
6498 186 4 0.0000000000000000e+00 -7.2255457736616563e+01 -3.6223751244557057e+01 -1.0917813538422817e+02 0 0 0
6499 186 4 0.0000000000000000e+00 -6.3164842522445660e+01 -3.4363217890272004e+01 -1.1224976033178534e+02 0 0 0
6500 186 3 0.0000000000000000e+00 -5.4214229084184375e+01 -3.6202410953987133e+01 -1.1611167130541099e+02 0 0 0
2216 64 1 0.0000000000000000e+00 -4.3320099410689885e+01 -3.3562127170415188e+01 -1.1932987275353855e+02 0 0 0
1381 40 2 0.0000000000000000e+00 -3.1527901402908583e+01 -3.3062790000470670e+01 -1.2057870436600317e+02 0 0 0
1382 40 2 0.0000000000000000e+00 -3.4145876518263911e+01 -3.1364570422102226e+01 -1.1124101987695107e+02 0 0 0
6491 186 4 0.0000000000000000e+00 -1.2948499627875955e+02 -1.7154695800859425e+01 -1.0831147773754785e+02 0 0 0
6492 186 4 0.0000000000000000e+00 -1.2015380383627860e+02 -1.4369040440288966e+01 -1.1280556001589254e+02 0 0 0
6493 186 3 0.0000000000000000e+00 -1.1363502019916371e+02 -1.8252350655890108e+01 -1.1946984446515806e+02 0 0 0
2524 73 1 0.0000000000000000e+00 -1.0422638595665066e+02 -1.2826683704154535e+01 -1.2120217499482452e+02 0 0 0
6494 186 4 0.0000000000000000e+00 -1.0601615968608888e+02 -2.3292928723008760e+01 -1.1548788460038050e+02 0 0 0
6515 187 4 0.0000000000000000e+00 -6.2045303790653826e+01 -2.2525665077909917e+01 -1.2121555498131710e+02 0 0 0
6516 187 4 0.0000000000000000e+00 -6.1206639684443253e+01 -1.3389805709770769e+01 -1.2026657981387251e+02 0 0 0
2215 64 2 0.0000000000000000e+00 -4.1182777557129157e+01 -2.3420502199895747e+01 -1.1952227757468519e+02 0 0 0
5548 159 3 0.0000000000000000e+00 -3.7882729803240238e+01 -1.5715297072088388e+01 -1.1078400497833000e+02 0 0 0
1616 47 2 0.0000000000000000e+00 -2.6067306151420510e+01 -1.7895948535623180e+01 -1.1697788546708080e+02 0 0 0
2523 73 2 0.0000000000000000e+00 -9.6526733511651784e+01 -1.1010827450326802e+01 -1.1401469986200020e+02 0 0 0
2522 73 2 0.0000000000000000e+00 -9.0027893729199334e+01 -4.3805945798191708e+00 -1.1105305811238009e+02 0 0 0
2521 73 2 0.0000000000000000e+00 -8.1604943424996776e+01 1.1412553680619810e+00 -1.0923880547061520e+02 0 0 0
6517 187 4 0.0000000000000000e+00 -6.0099423989239433e+01 -5.3315678324793492e+00 -1.1525424244505247e+02 0 0 0
5547 159 4 0.0000000000000000e+00 -4.3404301830756161e+01 -1.0832309128401638e+01 -1.1742837842072416e+02 0 0 0
2213 64 2 0.0000000000000000e+00 -3.0352081529731691e+01 -9.0612289243647108e+00 -1.2105143727326880e+02 0 0 0
2212 64 2 0.0000000000000000e+00 -3.2259551761789801e+01 8.9008165762616787e-01 -1.2032596178653057e+02 0 0 0
1717 50 2 0.0000000000000000e+00 -1.3816373537020459e+02 1.0436145795519881e+01 -1.1412277983546406e+02 0 0 0
1716 50 2 0.0000000000000000e+00 -1.3102524354565981e+02 1.2224464371835261e+01 -1.2053295711597087e+02 0 0 0
2548 73 2 0.0000000000000000e+00 -1.1668293029711775e+02 1.4894465299891028e+01 -1.0972326307677282e+02 0 0 0
4752 136 4 0.0000000000000000e+00 -9.6565241473570339e+01 6.5017816377690565e+00 -1.1629818463194358e+02 0 0 0
2913 84 2 0.0000000000000000e+00 -7.5004686804061237e+01 9.7488140501268674e+00 -1.0928463328379638e+02 0 0 0
2207 64 2 0.0000000000000000e+00 -6.2442866727994847e+01 1.0381837990780783e+01 -1.1477743514193766e+02 0 0 0
2206 64 2 0.0000000000000000e+00 -5.5820676101035048e+01 3.7426628995197131e+00 -1.1801184684605396e+02 0 0 0
6545 187 4 0.0000000000000000e+00 -3.4294796035761024e+01 3.4304212225802235e+00 -1.0817456929540663e+02 0 0 0
2211 64 2 0.0000000000000000e+00 -3.6366731719308341e+01 9.5119071194434301e+00 -1.1681901419070647e+02 0 0 0
2549 73 2 0.0000000000000000e+00 -1.2457439142314578e+02 2.1645174066517320e+01 -1.0810820237279344e+02 0 0 0
5882 169 4 0.0000000000000000e+00 -1.1925398883289850e+02 2.6914864164151840e+01 -1.1755040159125495e+02 0 0 0
5883 169 4 0.0000000000000000e+00 -1.1408430498693239e+02 2.6721956138950958e+01 -1.0909676853588552e+02 0 0 0
2914 84 2 0.0000000000000000e+00 -8.1464768621702135e+01 1.7920065793554137e+01 -1.0914659607069234e+02 0 0 0
6318 181 3 0.0000000000000000e+00 -6.1788887362329888e+01 2.1675006581599686e+01 -1.1825461357633669e+02 0 0 0
6319 181 4 0.0000000000000000e+00 -5.6795616298481612e+01 2.7335004075329387e+01 -1.1223263566715147e+02 0 0 0
2209 64 1 0.0000000000000000e+00 -5.2102403028229119e+01 1.9776837801231398e+01 -1.1316884657729496e+02 0 0 0
2210 64 2 0.0000000000000000e+00 -4.2849482487648068e+01 1.6208074350715400e+01 -1.1170752289631146e+02 0 0 0
1535 44 2 0.0000000000000000e+00 -3.3394055345020618e+01 2.1768706659794983e+01 -1.1862005241276518e+02 0 0 0
1534 44 2 0.0000000000000000e+00 -3.1987117657849517e+01 2.4092200255835497e+01 -1.0873647318226139e+02 0 0 0
2552 73 1 0.0000000000000000e+00 -1.4521490462001896e+02 3.8408789132860285e+01 -1.1595463384917542e+02 0 0 0
2551 73 2 0.0000000000000000e+00 -1.3918572001761549e+02 3.3955390768877834e+01 -1.0884919799802769e+02 0 0 0
6320 181 4 0.0000000000000000e+00 -5.2462955016661944e+01 3.5828594256157189e+01 -1.1608521378194173e+02 0 0 0
6321 181 4 0.0000000000000000e+00 -4.3559404059940128e+01 3.9165903125234500e+01 -1.1956864510904464e+02 0 0 0
6296 180 4 0.0000000000000000e+00 -1.4012710777732576e+02 4.7367421677012381e+01 -1.2011694825189520e+02 0 0 0
5130 147 4 0.0000000000000000e+00 -3.5558554410811510e+01 4.6983858351356282e+01 -1.1335961004027446e+02 0 0 0
5131 147 4 0.0000000000000000e+00 -2.6508273928071265e+01 5.0937510232593212e+01 -1.1197866352593319e+02 0 0 0
6239 179 4 0.0000000000000000e+00 -3.4589348640087607e+01 -8.5926905975271097e+01 -1.0242147642033221e+02 0 0 0
4195 120 4 0.0000000000000000e+00 -7.3696564445266674e+01 -6.8124250327639700e+01 -1.0398864241061153e+02 0 0 0