LAMMPS data file via write_data, version 5 Jun 2019, timestep = 380000000

7000 atoms
4 atom types
7286 bonds
3 bond types
6600 angles
2 angle types

-5.0000000000000000e+02 5.0000000000000000e+02 xlo xhi
-5.0000000000000000e+02 5.0000000000000000e+02 ylo yhi
-5.0000000000000000e+02 5.0000000000000000e+02 zlo zhi

Masses

1 1000
2 1000
3 1000
4 1000

Pair Coeffs # lj/cut

1 0.178 10
2 0.178 10
3 0.178 10
4 0.178 10

Angle Coeffs # cosine

1 2
2 2

Atoms # full

4445 127 4 0.0000000000000000e+00 -6.6335856976756560e+01 -6.6024654095698708e+01 -2.1442037482129621e+02 0 0 0
4444 127 4 0.0000000000000000e+00 -5.6893246102860452e+01 -6.2871512607579582e+01 -2.1380187699229759e+02 0 0 0
2232 64 2 0.0000000000000000e+00 -4.6208672269996406e+01 -4.0624083999999648e+01 -2.1370581673185538e+02 0 0 0
4443 127 4 0.0000000000000000e+00 -5.1899059239379746e+01 -5.9892346023141485e+01 -2.0554682653189371e+02 0 0 0
4442 127 3 0.0000000000000000e+00 -4.9102444712387218e+01 -5.2884847795801498e+01 -1.9900117758748357e+02 0 0 0
2230 64 1 0.0000000000000000e+00 -4.0643228681759588e+01 -5.7010049389922266e+01 -2.0522651204542572e+02 0 0 0
2229 64 2 0.0000000000000000e+00 -3.7856342146747451e+01 -6.1080462725843184e+01 -1.9665722894970446e+02 0 0 0
2233 64 2 0.0000000000000000e+00 -5.2948485587391829e+01 -3.8813276486458442e+01 -2.0682629765691343e+02 0 0 0
2231 64 2 0.0000000000000000e+00 -4.5525379360653794e+01 -4.9855270693943829e+01 -2.1020312207360163e+02 0 0 0
2234 64 2 0.0000000000000000e+00 -5.3386175183206461e+01 -3.2771958480402049e+01 -1.9855291427711785e+02 0 0 0
2228 64 2 0.0000000000000000e+00 -3.5953921756824826e+01 -6.2677066376000070e+01 -1.8701824996897741e+02 0 0 0
4441 127 4 0.0000000000000000e+00 -4.4895893867428214e+01 -4.5261722079282997e+01 -1.9362864918717489e+02 0 0 0
4440 127 4 0.0000000000000000e+00 -4.7220551855538638e+01 -3.7414025245829905e+01 -1.8750818738562600e+02 0 0 0
1630 47 2 0.0000000000000000e+00 -3.0264164275832126e+01 -4.6816921223499392e+01 -1.8827231601112038e+02 0 0 0
1632 47 2 0.0000000000000000e+00 -1.2847034583662152e+01 -4.2614555278842886e+01 -1.9127444480886413e+02 0 0 0
1631 47 2 0.0000000000000000e+00 -2.0576292822862136e+01 -4.7569769103913977e+01 -1.8714341517946667e+02 0 0 0
2236 64 2 0.0000000000000000e+00 -6.9781342923589591e+01 -2.9762597037607232e+01 -1.9019672317663398e+02 0 0 0
2237 64 1 0.0000000000000000e+00 -7.4750686580551431e+01 -2.4351100265690683e+01 -1.8426329657239731e+02 0 0 0
2235 64 2 0.0000000000000000e+00 -6.1406276839979519e+01 -3.3782637691101797e+01 -1.9309270103167162e+02 0 0 0
4439 127 4 0.0000000000000000e+00 -4.6901781936011751e+01 -2.7510478715265954e+01 -1.8567416280412107e+02 0 0 0
4438 127 4 0.0000000000000000e+00 -4.7003319499806622e+01 -1.7637591829279803e+01 -1.8866033662410064e+02 0 0 0
2240 64 2 0.0000000000000000e+00 -7.2052753404725138e+01 -2.7425288985816749e+00 -1.8458215789776361e+02 0 0 0
4437 127 4 0.0000000000000000e+00 -4.5996875169490941e+01 -7.6579689122738372e+00 -1.8963117536995614e+02 0 0 0
4436 127 4 0.0000000000000000e+00 -4.3777029995124849e+01 -9.9210459295161946e-01 -1.8289353101606866e+02 0 0 0
2075 60 2 0.0000000000000000e+00 -8.2354585488925608e+01 1.0048876650027593e+01 -1.8643892139588405e+02 0 0 0
2100 60 2 0.0000000000000000e+00 -7.5488340255618482e+01 -8.2886447300239524e+01 -1.7392406507873002e+02 0 0 0
2227 64 2 0.0000000000000000e+00 -2.9810463909541820e+01 -6.8938264494312065e+01 -1.8147353967930380e+02 0 0 0
2226 64 2 0.0000000000000000e+00 -2.2484270310504300e+01 -6.9948347869995075e+01 -1.7415766367003994e+02 0 0 0
5542 159 4 0.0000000000000000e+00 -4.0155388077320531e+01 -5.2209726436364534e+01 -1.7049912075162479e+02 0 0 0
2092 60 2 0.0000000000000000e+00 -3.1515111516153329e+01 -6.0528736191382237e+01 -1.7375359656523918e+02 0 0 0
2091 60 2 0.0000000000000000e+00 -3.0260287252211214e+01 -5.1807688710212446e+01 -1.7881220479283164e+02 0 0 0
4746 136 4 0.0000000000000000e+00 -7.7762730778534035e+01 -4.9703849390089538e+01 -1.7334029022435345e+02 0 0 0
4745 136 4 0.0000000000000000e+00 -7.2029070037665079e+01 -4.0722881412236163e+01 -1.7183452471793174e+02 0 0 0
1629 47 2 0.0000000000000000e+00 -3.4848003233327482e+01 -4.1330558296855877e+01 -1.8220781527831736e+02 0 0 0
2090 60 1 0.0000000000000000e+00 -2.6937561232682871e+01 -4.4937729387349520e+01 -1.7228549879482765e+02 0 0 0
4744 136 4 0.0000000000000000e+00 -7.6134305818584153e+01 -3.1410513633141491e+01 -1.7190846829566510e+02 0 0 0
1628 47 1 0.0000000000000000e+00 -3.7105824556073841e+01 -3.6589629275795296e+01 -1.7310598477986852e+02 0 0 0
1627 47 2 0.0000000000000000e+00 -3.6476378114953810e+01 -2.6726250641483858e+01 -1.7549467756624279e+02 0 0 0
4736 136 3 0.0000000000000000e+00 -2.2659972885052227e+01 -2.7281345619980961e+01 -1.7148821220308068e+02 0 0 0
4735 136 4 0.0000000000000000e+00 -1.4451469035090771e+01 -2.3690022625206584e+01 -1.6913036329636492e+02 0 0 0
2238 64 2 0.0000000000000000e+00 -7.8691689802114453e+01 -1.6468834863319955e+01 -1.8065936905498253e+02 0 0 0
4743 136 3 0.0000000000000000e+00 -7.4674675310513081e+01 -2.1413527620243702e+01 -1.7333939490509812e+02 0 0 0
4742 136 4 0.0000000000000000e+00 -6.7133075206190739e+01 -1.6673023629714091e+01 -1.7781506903937185e+02 0 0 0
4741 136 4 0.0000000000000000e+00 -5.9198800097629430e+01 -1.0530556613622789e+01 -1.7702072205057146e+02 0 0 0
1625 47 2 0.0000000000000000e+00 -5.3799834921496981e+01 -1.9235380055348273e+01 -1.7469929486001138e+02 0 0 0
1626 47 2 0.0000000000000000e+00 -4.5280423866690640e+01 -2.2868727381735091e+01 -1.7723814378242380e+02 0 0 0
4737 136 4 0.0000000000000000e+00 -2.4009416547600264e+01 -1.9292740895927317e+01 -1.7654862398570842e+02 0 0 0
4738 136 4 0.0000000000000000e+00 -3.0203662015641491e+01 -1.1187577203348244e+01 -1.7586009564256500e+02 0 0 0
4734 136 4 0.0000000000000000e+00 -1.2440873364976616e+01 -1.9483268284501538e+01 -1.7780417622119700e+02 0 0 0
2077 60 2 0.0000000000000000e+00 -8.6855579732547795e+01 -3.1783765737829315e+00 -1.7407915998165095e+02 0 0 0
2239 64 2 0.0000000000000000e+00 -7.7885209534979566e+01 -6.3162701657247302e+00 -1.7803920052874284e+02 0 0 0
4740 136 4 0.0000000000000000e+00 -4.9984676517973384e+01 -8.5837259497579570e+00 -1.7853233498191787e+02 0 0 0
4739 136 4 0.0000000000000000e+00 -4.0416833702606553e+01 -8.9652990955192067e+00 -1.7573990026874890e+02 0 0 0
4435 127 3 0.0000000000000000e+00 -4.6367038961577840e+01 3.8667656241535067e+00 -1.7452224201759603e+02 0 0 0
6311 181 3 0.0000000000000000e+00 -9.4227519255143449e+01 1.2560655690989938e+01 -1.7773138405600216e+02 0 0 0
2076 60 1 0.0000000000000000e+00 -8.7319412908983480e+01 4.3812446101014615e+00 -1.7993270626855414e+02 0 0 0
3011 87 2 0.0000000000000000e+00 -7.0845309557033289e+01 1.0692495351288313e+01 -1.7790465232440931e+02 0 0 0
3012 87 2 0.0000000000000000e+00 -6.4670997343695731e+01 8.6344955112487813e+00 -1.6996210145324588e+02 0 0 0
6335 181 4 0.0000000000000000e+00 -2.9893952823907338e+01 -9.6097041737145602e+01 -1.5701182136836746e+02 0 0 0
2099 60 2 0.0000000000000000e+00 -7.1859806905127670e+01 -8.4387761692407096e+01 -1.6535698476549319e+02 0 0 0
2098 60 2 0.0000000000000000e+00 -6.9798127025746808e+01 -8.0136670582952178e+01 -1.5619717533160278e+02 0 0 0
6334 181 4 0.0000000000000000e+00 -3.3071264104226834e+01 -8.6679745684527447e+01 -1.5965720091280755e+02 0 0 0
4748 136 4 0.0000000000000000e+00 -7.5683112511725469e+01 -6.5220561274228587e+01 -1.6035915787581035e+02 0 0 0
2094 60 2 0.0000000000000000e+00 -4.3906550077922041e+01 -6.8261183760637152e+01 -1.5965964117283002e+02 0 0 0
6333 181 4 0.0000000000000000e+00 -3.7290759523762809e+01 -7.7326079247637466e+01 -1.5770260940941660e+02 0 0 0
2093 60 2 0.0000000000000000e+00 -3.6326124673465202e+01 -6.6550141013653786e+01 -1.6751537647860391e+02 0 0 0
2224 64 2 0.0000000000000000e+00 -1.2048593242082665e+01 -7.5552152003642959e+01 -1.5809959331895942e+02 0 0 0
2225 64 2 0.0000000000000000e+00 -1.8578888137201577e+01 -7.4194001332907632e+01 -1.6602124729537860e+02 0 0 0
4747 136 4 0.0000000000000000e+00 -7.6811362611153285e+01 -5.8863691234715034e+01 -1.6799382999806005e+02 0 0 0
5543 159 4 0.0000000000000000e+00 -3.8434444261482298e+01 -5.5844204570585866e+01 -1.6190508944327607e+02 0 0 0
5541 159 3 0.0000000000000000e+00 -4.4149530658480870e+01 -4.3529205729435475e+01 -1.6765127325637590e+02 0 0 0
2088 60 2 0.0000000000000000e+00 -3.8385362448324138e+01 -3.7522884798773667e+01 -1.5684588791903951e+02 0 0 0
2089 60 2 0.0000000000000000e+00 -3.3586766789291083e+01 -4.2565877976761946e+01 -1.6481175893016720e+02 0 0 0
5428 156 4 0.0000000000000000e+00 -2.4478288070304210e+01 -4.0441941467537028e+01 -1.6225235221933571e+02 0 0 0
5429 156 3 0.0000000000000000e+00 -1.6589618157493550e+01 -4.1502466310334434e+01 -1.6866461245019258e+02 0 0 0
2081 60 2 0.0000000000000000e+00 -9.1209594918440118e+01 -2.6645914472352061e+01 -1.5545850451628158e+02 0 0 0
5540 159 4 0.0000000000000000e+00 -4.8837795776471786e+01 -3.5489366072102342e+01 -1.6454182437174640e+02 0 0 0
5539 159 4 0.0000000000000000e+00 -4.9545852953950700e+01 -2.5653589372142694e+01 -1.6703061553834468e+02 0 0 0
5426 156 4 0.0000000000000000e+00 -3.8457791355013967e+01 -2.9081413751812999e+01 -1.6574402216959092e+02 0 0 0
5427 156 4 0.0000000000000000e+00 -3.0675228175815775e+01 -3.3089805098077747e+01 -1.6102014436556095e+02 0 0 0
2080 60 2 0.0000000000000000e+00 -9.6544515909331608e+01 -2.0638578564265238e+01 -1.6153701965448167e+02 0 0 0
2079 60 2 0.0000000000000000e+00 -9.8321476032272457e+01 -1.0739997922366294e+01 -1.6122159002488598e+02 0 0 0
2078 60 2 0.0000000000000000e+00 -9.0604350544126333e+01 -1.0772935831381023e+01 -1.6766702216062365e+02 0 0 0
1624 47 2 0.0000000000000000e+00 -5.6815756406050241e+01 -1.3466612178520194e+01 -1.6781850293898563e+02 0 0 0
5538 159 4 0.0000000000000000e+00 -5.0359267029250042e+01 -1.9484408281725226e+01 -1.5874603739509473e+02 0 0 0
1622 47 2 0.0000000000000000e+00 -3.8843669033487515e+01 -1.5147914137809654e+01 -1.6718760241154436e+02 0 0 0
1623 47 2 0.0000000000000000e+00 -4.7535315720982993e+01 -1.0561950191731297e+01 -1.6626289472050962e+02 0 0 0
1621 47 1 0.0000000000000000e+00 -3.1529482170484492e+01 -2.1687027092648322e+01 -1.6777926609853225e+02 0 0 0
1620 47 2 0.0000000000000000e+00 -2.3985574421985952e+01 -2.2818633444419952e+01 -1.6182614554880286e+02 0 0 0
1540 44 2 0.0000000000000000e+00 -1.7990987653790434e+01 -1.3655486444389126e+01 -1.6474255805110278e+02 0 0 0
6313 181 4 0.0000000000000000e+00 -9.7759244854192460e+01 1.4800792728816943e+00 -1.6406485815247598e+02 0 0 0
6314 181 4 0.0000000000000000e+00 -9.2259172485963433e+01 -3.1340788674485385e+00 -1.5756696183845841e+02 0 0 0
5531 159 4 0.0000000000000000e+00 -7.9521637986600012e+01 -3.3430597855790998e+00 -1.6787015208109605e+02 0 0 0
5532 159 4 0.0000000000000000e+00 -8.0100872617549186e+01 -1.8644863232591768e+00 -1.5840154489778871e+02 0 0 0
3015 87 2 0.0000000000000000e+00 -4.0554233935864175e+01 -3.3452220310413470e+00 -1.6421748809866813e+02 0 0 0
3014 87 1 0.0000000000000000e+00 -4.8577722830598155e+01 2.6935393784405295e+00 -1.6345135152021078e+02 0 0 0
3016 87 2 0.0000000000000000e+00 -3.4932287976545197e+01 -5.9410630702075204e+00 -1.5678217124869008e+02 0 0 0
6312 181 4 0.0000000000000000e+00 -9.6637701903309761e+01 1.0349585397651325e+01 -1.6853864004321198e+02 0 0 0
6304 181 3 0.0000000000000000e+00 -8.4794780839940273e+01 1.2463572263037593e+01 -1.5586083926701849e+02 0 0 0
3013 87 2 0.0000000000000000e+00 -5.8499987682860201e+01 4.5096199079260497e+00 -1.6294664795174734e+02 0 0 0
4434 127 4 0.0000000000000000e+00 -4.7132878989074555e+01 1.1466261664142682e+01 -1.6798064348406663e+02 0 0 0
3745 107 4 0.0000000000000000e+00 -8.6206387719678148e+01 -1.2058568073375528e+02 -1.5064683340855711e+02 0 0 0
3744 107 4 0.0000000000000000e+00 -8.7321967677640970e+01 -1.1308581982669730e+02 -1.4450262522970274e+02 0 0 0
1373 40 2 0.0000000000000000e+00 -4.2679989484368932e+01 -1.0597487395888808e+02 -1.4980790784703333e+02 0 0 0
1374 40 2 0.0000000000000000e+00 -3.9075681289018910e+01 -9.6490724136631570e+01 -1.4900788486622810e+02 0 0 0
2097 60 1 0.0000000000000000e+00 -6.5807074738842047e+01 -7.7701426968630173e+01 -1.4768801473324055e+02 0 0 0
1375 40 2 0.0000000000000000e+00 -4.0653997405688067e+01 -8.7122599341689892e+01 -1.4659650702829140e+02 0 0 0
2521 73 2 0.0000000000000000e+00 -7.3683013428171293e+01 -6.6930616366539937e+01 -1.4951172961346475e+02 0 0 0
2096 60 2 0.0000000000000000e+00 -5.5743312648349225e+01 -7.7159083880718740e+01 -1.4759158824036615e+02 0 0 0
1376 40 1 0.0000000000000000e+00 -4.1215538040052380e+01 -7.7540750472138555e+01 -1.4556737472198677e+02 0 0 0
2095 60 2 0.0000000000000000e+00 -4.8206191714938115e+01 -7.5598228443129670e+01 -1.5360801467471097e+02 0 0 0
1377 40 2 0.0000000000000000e+00 -4.2874138227522764e+01 -6.8596323399788275e+01 -1.4208390959170998e+02 0 0 0
6332 181 3 0.0000000000000000e+00 -3.6875788902483073e+01 -6.9426713150583993e+01 -1.5162314149793517e+02 0 0 0
6331 181 4 0.0000000000000000e+00 -3.2033910848818500e+01 -6.6690371499539935e+01 -1.4355132587111714e+02 0 0 0
4749 136 4 0.0000000000000000e+00 -7.8688540136458073e+01 -5.7857099601823258e+01 -1.5415250611517988e+02 0 0 0
4750 136 3 0.0000000000000000e+00 -7.7603384909141198e+01 -5.0688939336983680e+01 -1.4817596823369175e+02 0 0 0
5545 159 4 0.0000000000000000e+00 -3.9533754997568153e+01 -5.4496563616263103e+01 -1.4257893448982142e+02 0 0 0
5544 159 4 0.0000000000000000e+00 -3.9413261808627112e+01 -5.9348925331503210e+01 -1.5227850421691170e+02 0 0 0
1613 47 2 0.0000000000000000e+00 -1.2588085925997119e+01 -5.3172904617454670e+01 -1.4204561258312330e+02 0 0 0
4751 136 4 0.0000000000000000e+00 -8.4237023300593933e+01 -4.3825987325084270e+01 -1.4415430615085282e+02 0 0 0
2083 60 1 0.0000000000000000e+00 -7.8278386727304493e+01 -3.9817310442175270e+01 -1.5034523907531968e+02 0 0 0
4550 130 4 0.0000000000000000e+00 -2.9549650762073714e+01 -4.3869262479352436e+01 -1.4538916980485342e+02 0 0 0
4549 130 4 0.0000000000000000e+00 -2.1552503824552979e+01 -4.8402977530611885e+01 -1.4937869298480078e+02 0 0 0
4548 130 4 0.0000000000000000e+00 -1.2513996161037237e+01 -4.4257356740617325e+01 -1.5097657002970340e+02 0 0 0
3020 87 2 0.0000000000000000e+00 -2.3389174747098664e+01 -3.8414058281802618e+01 -1.5120970847660629e+02 0 0 0
1716 50 2 0.0000000000000000e+00 -1.2479700194433426e+02 -3.4221572132986800e+01 -1.4931508586607885e+02 0 0 0
2552 73 1 0.0000000000000000e+00 -1.1634106589668926e+02 -2.9578174826074942e+01 -1.4424274311737167e+02 0 0 0
2082 60 2 0.0000000000000000e+00 -8.5751812998837494e+01 -3.4829375115108171e+01 -1.5283869964602269e+02 0 0 0
2084 60 2 0.0000000000000000e+00 -7.1805535588029784e+01 -3.2902853132353542e+01 -1.5195550605641407e+02 0 0 0
2085 60 2 0.0000000000000000e+00 -6.3946538326427522e+01 -2.9049184773150106e+01 -1.4736716665875446e+02 0 0 0
2086 60 2 0.0000000000000000e+00 -5.4931391987078101e+01 -3.1087218877396406e+01 -1.5048667960302416e+02 0 0 0
2209 64 1 0.0000000000000000e+00 -5.6728539624231210e+01 -2.4999911584011414e+01 -1.4301773470716805e+02 0 0 0
2087 60 2 0.0000000000000000e+00 -4.6058443752157125e+01 -3.2031101221568761e+01 -1.5514176046557159e+02 0 0 0
2211 64 2 0.0000000000000000e+00 -4.3598472070449631e+01 -2.8003986017628627e+01 -1.4261231934410125e+02 0 0 0
3019 87 2 0.0000000000000000e+00 -3.0043725108166250e+01 -3.1770604185605805e+01 -1.5031386656372800e+02 0 0 0
3021 87 1 0.0000000000000000e+00 -1.4214681802277651e+01 -3.3295551693138350e+01 -1.4968641206073099e+02 0 0 0
1619 47 2 0.0000000000000000e+00 -2.0527905039770371e+01 -2.3649667876389795e+01 -1.5208745153091797e+02 0 0 0
1618 47 2 0.0000000000000000e+00 -1.7128846769759704e+01 -2.5952961541407106e+01 -1.4311217576361463e+02 0 0 0
2553 73 2 0.0000000000000000e+00 -1.2068982053645310e+02 -2.2070618675181297e+01 -1.4826577086989053e+02 0 0 0
2554 73 2 0.0000000000000000e+00 -1.2967658322006599e+02 -1.7895394807702043e+01 -1.4440414714592393e+02 0 0 0
6296 180 4 0.0000000000000000e+00 -1.1124752049004883e+02 -1.8837424242934624e+01 -1.4349255671014055e+02 0 0 0
6295 180 4 0.0000000000000000e+00 -1.0152221522918968e+02 -1.7164872435989082e+01 -1.4609539858096898e+02 0 0 0
6316 181 4 0.0000000000000000e+00 -7.8520052834780941e+01 -1.1733996101323626e+01 -1.4783412966138221e+02 0 0 0
6317 181 4 0.0000000000000000e+00 -6.8985834936111928e+01 -1.3013231648237488e+01 -1.4418155078629769e+02 0 0 0
6318 181 3 0.0000000000000000e+00 -6.0081417852380902e+01 -1.5513515287887657e+01 -1.4777805734387354e+02 0 0 0
5537 159 4 0.0000000000000000e+00 -4.8947958318288514e+01 -1.1679570017143966e+01 -1.5303486485201199e+02 0 0 0
2210 64 2 0.0000000000000000e+00 -4.8511428399424801e+01 -2.0897522506121895e+01 -1.4746454763390912e+02 0 0 0
3018 87 2 0.0000000000000000e+00 -2.8156631848964633e+01 -2.2339409504389028e+01 -1.4743638456072006e+02 0 0 0
3017 87 2 0.0000000000000000e+00 -3.0013801873266129e+01 -1.3506192875035039e+01 -1.5217814000556132e+02 0 0 0
1539 44 2 0.0000000000000000e+00 -1.6806192416894675e+01 -1.3226759739882617e+01 -1.5450362661664462e+02 0 0 0
1538 44 2 0.0000000000000000e+00 -1.6921241958811937e+01 -1.5032524504817300e+01 -1.4486870688091850e+02 0 0 0
3308 95 1 0.0000000000000000e+00 -1.3567609250891755e+02 -2.1520645959642555e+00 -1.4137493525154352e+02 0 0 0
3309 95 2 0.0000000000000000e+00 -1.2572279749953044e+02 -3.7124095288489358e+00 -1.4271372164209762e+02 0 0 0
3310 95 2 0.0000000000000000e+00 -1.1639548776553605e+02 -6.0688242574629889e+00 -1.4214224948754702e+02 0 0 0
3311 95 2 0.0000000000000000e+00 -1.0706946901716483e+02 -5.2722195591752508e+00 -1.4530758816969538e+02 0 0 0
3312 95 2 0.0000000000000000e+00 -9.7464994548753111e+01 -6.8653335235683892e+00 -1.4567387163294921e+02 0 0 0
6315 181 4 0.0000000000000000e+00 -8.7344428682381476e+01 -5.9799975549706099e+00 -1.5005541222730938e+02 0 0 0
5533 159 4 0.0000000000000000e+00 -7.6212481517926619e+01 -1.5077910128503522e+00 -1.4861588487971233e+02 0 0 0
5534 159 3 0.0000000000000000e+00 -6.7725959417451335e+01 2.6894533870563193e-02 -1.4338963376013882e+02 0 0 0
5536 159 4 0.0000000000000000e+00 -5.1936370579145489e+01 -2.6808816280723864e+00 -1.4969455315768474e+02 0 0 0
5535 159 4 0.0000000000000000e+00 -6.0146874034498460e+01 3.4221994625888454e+00 -1.4709066771885816e+02 0 0 0
3306 95 2 0.0000000000000000e+00 -1.4825930903079669e+02 4.3554608295161676e+00 -1.4373890590801741e+02 0 0 0
6303 181 4 0.0000000000000000e+00 -8.2225587919735361e+01 1.3564259229236800e+01 -1.4633473423226309e+02 0 0 0
1804 52 2 0.0000000000000000e+00 -6.7073544287267183e+01 1.5886235432426554e+01 -1.5158307473063863e+02 0 0 0
1803 52 1 0.0000000000000000e+00 -6.8002648614698543e+01 1.0972567121642543e+01 -1.4333267322521985e+02 0 0 0
3743 107 4 0.0000000000000000e+00 -8.8700266371334337e+01 -1.0748186312249409e+02 -1.3554797557825052e+02 0 0 0
1372 40 2 0.0000000000000000e+00 -4.4396459153102086e+01 -1.0947052021693545e+02 -1.4065986551479023e+02 0 0 0
1371 40 2 0.0000000000000000e+00 -4.3891484490830230e+01 -1.1125930458977686e+02 -1.3030222817176787e+02 0 0 0
2531 73 1 0.0000000000000000e+00 -9.8661320912053441e+01 -9.7449488578366228e+01 -1.2954791941486431e+02 0 0 0
2532 73 2 0.0000000000000000e+00 -9.1789123986296829e+01 -9.4296517311830343e+01 -1.3625539740691144e+02 0 0 0
2533 73 2 0.0000000000000000e+00 -8.2909945841537379e+01 -9.9125752557170372e+01 -1.3820677297139343e+02 0 0 0
3742 107 3 0.0000000000000000e+00 -8.8508162763970958e+01 -1.0115912866654320e+02 -1.2775586517212095e+02 0 0 0
2534 73 2 0.0000000000000000e+00 -7.4944859763137003e+01 -1.0411877408069128e+02 -1.3448390500280178e+02 0 0 0
6251 179 4 0.0000000000000000e+00 -6.7794727253453644e+01 -9.5722806210231127e+01 -1.2952213002879034e+02 0 0 0
6505 186 4 0.0000000000000000e+00 -1.8852596811383467e+01 -9.3741755210988885e+01 -1.3037052629402379e+02 0 0 0
6512 187 4 0.0000000000000000e+00 -8.5193771440744911e+01 -7.8316528372247035e+01 -1.3550835259597380e+02 0 0 0
6252 179 4 0.0000000000000000e+00 -7.4569496250936098e+01 -8.9119680691941312e+01 -1.3135934427939119e+02 0 0 0
6514 187 3 0.0000000000000000e+00 -6.8039916348258842e+01 -7.9131378635676498e+01 -1.3672218640836257e+02 0 0 0
6513 187 4 0.0000000000000000e+00 -7.6738073244692643e+01 -8.2594453179585685e+01 -1.3930432306017411e+02 0 0 0
6506 186 4 0.0000000000000000e+00 -1.5133437404672334e+01 -9.0078069801135612e+01 -1.3884409763863209e+02 0 0 0
6511 187 4 0.0000000000000000e+00 -9.3803286452207871e+01 -7.4832454693155810e+01 -1.3876898514865232e+02 0 0 0
2524 73 1 0.0000000000000000e+00 -9.4864107283557686e+01 -6.4360092831494256e+01 -1.3318110657792869e+02 0 0 0
2525 73 2 0.0000000000000000e+00 -1.0119239964092753e+02 -6.9503435584316605e+01 -1.2838331614534692e+02 0 0 0
2523 73 2 0.0000000000000000e+00 -8.5191396493232219e+01 -6.5622677466099020e+01 -1.3689045354116911e+02 0 0 0
2522 73 2 0.0000000000000000e+00 -7.6692310341770948e+01 -6.4339814988657565e+01 -1.4025708031212460e+02 0 0 0
6516 187 4 0.0000000000000000e+00 -6.4872310552013687e+01 -6.7364317972056227e+01 -1.2786510677695279e+02 0 0 0
6515 187 4 0.0000000000000000e+00 -6.0720101858345437e+01 -7.6065528550948571e+01 -1.3031636714921342e+02 0 0 0
6501 186 4 0.0000000000000000e+00 -4.0432299010263449e+01 -7.5345479251158210e+01 -1.3332151764392336e+02 0 0 0
6502 186 4 0.0000000000000000e+00 -3.1311116427325022e+01 -7.5189696681586852e+01 -1.2984767528224933e+02 0 0 0
6490 186 4 0.0000000000000000e+00 -1.2312682631180940e+02 -5.1021262253548564e+01 -1.3469845940396561e+02 0 0 0
6491 186 4 0.0000000000000000e+00 -1.1316116307333637e+02 -5.1510838977110701e+01 -1.3542048580094229e+02 0 0 0
6492 186 4 0.0000000000000000e+00 -1.0453821991772199e+02 -5.4968463352376673e+01 -1.3182953083084280e+02 0 0 0
5546 159 4 0.0000000000000000e+00 -4.7168133621563271e+01 -5.3656105951754157e+01 -1.3547433793448113e+02 0 0 0
1378 40 2 0.0000000000000000e+00 -3.7721652851055595e+01 -6.3131523214076807e+01 -1.3564242780235799e+02 0 0 0
2214 64 2 0.0000000000000000e+00 -4.0364416346735517e+01 -5.0390123901939383e+01 -1.2836174634937623e+02 0 0 0
6330 181 4 0.0000000000000000e+00 -2.7116914234614303e+01 -6.1998195066618955e+01 -1.3662423132520902e+02 0 0 0
6329 181 4 0.0000000000000000e+00 -2.3821260756044264e+01 -5.2735262931852390e+01 -1.3861578866499804e+02 0 0 0
6489 186 4 0.0000000000000000e+00 -1.3235917482751478e+02 -4.9794529937941967e+01 -1.3106052540654420e+02 0 0 0
2550 73 2 0.0000000000000000e+00 -1.1259996860197352e+02 -4.2009844896940294e+01 -1.3071245460138229e+02 0 0 0
4753 136 4 0.0000000000000000e+00 -9.4614969130604308e+01 -4.1411249463628302e+01 -1.2773796677215327e+02 0 0 0
4752 136 4 0.0000000000000000e+00 -9.0312714061304789e+01 -4.4807995238001595e+01 -1.3617205820739360e+02 0 0 0
2207 64 2 0.0000000000000000e+00 -6.5028200304023329e+01 -3.9743345152179209e+01 -1.3223027020517878e+02 0 0 0
2206 64 2 0.0000000000000000e+00 -6.3786542834939119e+01 -4.8971083328892881e+01 -1.3231973377498258e+02 0 0 0
2213 64 2 0.0000000000000000e+00 -3.9474522051763465e+01 -4.3688564091893987e+01 -1.3553443130927673e+02 0 0 0
6328 181 4 0.0000000000000000e+00 -2.6761325566850065e+01 -4.4443583455792549e+01 -1.3412429071276145e+02 0 0 0
1718 50 2 0.0000000000000000e+00 -1.3498126712452225e+02 -3.1713898100039117e+01 -1.3199563962896943e+02 0 0 0
1717 50 2 0.0000000000000000e+00 -1.3058740180566522e+02 -3.0773503428748132e+01 -1.4103199633277123e+02 0 0 0
2551 73 2 0.0000000000000000e+00 -1.1528007632710613e+02 -3.6302711633983584e+01 -1.3786936860548090e+02 0 0 0
6298 180 4 0.0000000000000000e+00 -1.1781969035795241e+02 -2.8880814404526326e+01 -1.3065454777376925e+02 0 0 0
6300 180 4 0.0000000000000000e+00 -9.9670451718172970e+01 -2.4693359839641392e+01 -1.2973635298995072e+02 0 0 0
2208 64 2 0.0000000000000000e+00 -6.2306016646207098e+01 -3.1261423906703460e+01 -1.3708868817392630e+02 0 0 0
2212 64 2 0.0000000000000000e+00 -4.6794357120113141e+01 -3.6222342861716783e+01 -1.3718638360194143e+02 0 0 0
6327 181 4 0.0000000000000000e+00 -3.0818317873153088e+01 -3.5724669968768396e+01 -1.3449032385634337e+02 0 0 0
6326 181 4 0.0000000000000000e+00 -2.8735375470191840e+01 -2.6362685634873575e+01 -1.3597209075897510e+02 0 0 0
1617 47 2 0.0000000000000000e+00 -1.8589298462890348e+01 -2.8086545670862950e+01 -1.3405746133464353e+02 0 0 0
1616 47 2 0.0000000000000000e+00 -1.0235095889912534e+01 -3.1490660049549266e+01 -1.2942732876280252e+02 0 0 0
2555 73 2 0.0000000000000000e+00 -1.3518575189297312e+02 -1.6247699810707882e+01 -1.3616860663181731e+02 0 0 0
6297 180 3 0.0000000000000000e+00 -1.1903420431978923e+02 -2.1229315666988043e+01 -1.3737495686385978e+02 0 0 0
6291 180 4 0.0000000000000000e+00 -1.2686131776384006e+02 -1.2893304011353241e+01 -1.2916139653847350e+02 0 0 0
6293 180 4 0.0000000000000000e+00 -1.1229160511332456e+02 -1.4980047933542030e+01 -1.3304971295191100e+02 0 0 0
6294 180 4 0.0000000000000000e+00 -1.0310338132259923e+02 -1.6176596604249934e+01 -1.3624124913116262e+02 0 0 0
3313 95 2 0.0000000000000000e+00 -8.9248968848922345e+01 -1.0649388419725184e+01 -1.4124102894370301e+02 0 0 0
6319 181 4 0.0000000000000000e+00 -5.3930007967298060e+01 -1.4986264874246878e+01 -1.4016598176362305e+02 0 0 0
6320 181 4 0.0000000000000000e+00 -5.0775595733875640e+01 -1.3538408238982065e+01 -1.3042417707323128e+02 0 0 0
6325 181 3 0.0000000000000000e+00 -2.4605021222836172e+01 -1.8348364270483973e+01 -1.3196561512902082e+02 0 0 0
1537 44 1 0.0000000000000000e+00 -1.4032083470333065e+01 -1.5141818390479667e+01 -1.3518303364535922e+02 0 0 0
3307 95 2 0.0000000000000000e+00 -1.4537133972010869e+02 -3.6768138254683920e+00 -1.3919437955863884e+02 0 0 0
6290 180 3 0.0000000000000000e+00 -1.3459571053276977e+02 -7.5276226514644655e+00 -1.3134752790412520e+02 0 0 0
3726 107 4 0.0000000000000000e+00 -1.1044833809327200e+02 2.8458501052034144e+00 -1.3093357570980575e+02 0 0 0
3315 95 1 0.0000000000000000e+00 -9.3551162955389813e+01 2.7769368073860896e+00 -1.2846523001901909e+02 0 0 0
3314 95 2 0.0000000000000000e+00 -8.9584055171051602e+01 -2.2341393298523231e+00 -1.3587987907680798e+02 0 0 0
5900 169 4 0.0000000000000000e+00 -8.0024126533873101e+01 -9.0090403260684937e+00 -1.2813136193375666e+02 0 0 0
5901 169 4 0.0000000000000000e+00 -8.1238961735109740e+01 7.1488920104882236e-01 -1.2926124290905477e+02 0 0 0
6324 181 4 0.0000000000000000e+00 -2.4594012963373199e+01 -9.2523386737544939e+00 -1.2815102455600797e+02 0 0 0
6476 186 4 0.0000000000000000e+00 -1.5660737205101537e+02 1.4129263927143146e+01 -1.3002154478553703e+02 0 0 0
3304 95 2 0.0000000000000000e+00 -1.4669422375801503e+02 1.6192727462120786e+01 -1.3107415706238044e+02 0 0 0
3305 95 2 0.0000000000000000e+00 -1.4510626745542638e+02 1.3425396105706497e+01 -1.4066440328399295e+02 0 0 0
1800 52 2 0.0000000000000000e+00 -9.5511227009071533e+01 1.2487468154738753e+01 -1.3727302344260050e+02 0 0 0
1799 52 2 0.0000000000000000e+00 -1.0404424614040165e+02 1.1104223736830766e+01 -1.3399795313701182e+02 0 0 0
1801 52 2 0.0000000000000000e+00 -8.5601124299930291e+01 1.0615963873529488e+01 -1.3587640026554777e+02 0 0 0
1802 52 2 0.0000000000000000e+00 -7.6021435065404575e+01 7.4664979762664192e+00 -1.3797263778065437e+02 0 0 0
1369 40 1 0.0000000000000000e+00 -3.4360987468910430e+01 -1.1917572732694963e+02 -1.1649891790026481e+02 0 0 0
2536 73 2 0.0000000000000000e+00 -7.1318253247377498e+01 -1.0997168589124735e+02 -1.1676013653427941e+02 0 0 0
2535 73 2 0.0000000000000000e+00 -7.0240081629650518e+01 -1.0498734256306086e+02 -1.2587041880381484e+02 0 0 0
1370 40 2 0.0000000000000000e+00 -3.9657349680030030e+01 -1.1269125366142688e+02 -1.2142379567761340e+02 0 0 0
2530 73 2 0.0000000000000000e+00 -1.0820648235354346e+02 -9.6575920736649664e+01 -1.2616636052694307e+02 0 0 0
3741 107 4 0.0000000000000000e+00 -8.1759265350700289e+01 -9.5169855355260438e+01 -1.2254886982952802e+02 0 0 0
6250 179 4 0.0000000000000000e+00 -6.7019397101086199e+01 -9.7232301995013941e+01 -1.1993378247246093e+02 0 0 0
2529 73 2 0.0000000000000000e+00 -1.1471005704394838e+02 -9.0238134785795907e+01 -1.2235811540021935e+02 0 0 0
2528 73 2 0.0000000000000000e+00 -1.1716285819002253e+02 -8.0554254337639591e+01 -1.2028567552205308e+02 0 0 0
6253 179 4 0.0000000000000000e+00 -8.2416709204791246e+01 -8.5524522346060863e+01 -1.2669814044744808e+02 0 0 0
6254 179 4 0.0000000000000000e+00 -8.4305124428468261e+01 -8.2752497893503985e+01 -1.1727038388402444e+02 0 0 0
3740 107 4 0.0000000000000000e+00 -7.6096132649347240e+01 -8.8762748916404234e+01 -1.1694469085936036e+02 0 0 0
6503 186 4 0.0000000000000000e+00 -2.5792586254949757e+01 -8.0945239235598905e+01 -1.2351031123548499e+02 0 0 0
6504 186 4 0.0000000000000000e+00 -2.0567931746514006e+01 -8.9003440289277535e+01 -1.2189638603522624e+02 0 0 0
2527 73 2 0.0000000000000000e+00 -1.1712818650355500e+02 -7.0437899355438731e+01 -1.1902698708429520e+02 0 0 0
2526 73 2 0.0000000000000000e+00 -1.0905743456344533e+02 -6.5469391400649940e+01 -1.2291516862572225e+02 0 0 0
6495 186 4 0.0000000000000000e+00 -8.4777973556155644e+01 -6.9413749988938520e+01 -1.1645052026615711e+02 0 0 0
6499 186 4 0.0000000000000000e+00 -5.3971803690552271e+01 -7.5265466653906898e+01 -1.1864299648655440e+02 0 0 0
6500 186 3 0.0000000000000000e+00 -4.6557122596188918e+01 -7.2461678604197459e+01 -1.2542893878506058e+02 0 0 0
2216 64 1 0.0000000000000000e+00 -3.9983476535896095e+01 -6.6610411055139920e+01 -1.1857339974834457e+02 0 0 0
2217 64 2 0.0000000000000000e+00 -3.1617086428318995e+01 -7.1334511796460291e+01 -1.1859293679986484e+02 0 0 0
2218 64 2 0.0000000000000000e+00 -2.1951773079696686e+01 -6.9154363477409049e+01 -1.2068915816409131e+02 0 0 0
2219 64 2 0.0000000000000000e+00 -1.2560055525504126e+01 -7.0539141532760638e+01 -1.2295116645038418e+02 0 0 0
2548 73 2 0.0000000000000000e+00 -1.0352729369868945e+02 -5.2328933613145431e+01 -1.1644940857813060e+02 0 0 0