LAMMPS data file via write_data, version 5 Jun 2019, timestep = 370000000

7000 atoms
4 atom types
7286 bonds
3 bond types
6600 angles
2 angle types

-5.0000000000000000e+02 5.0000000000000000e+02 xlo xhi
-5.0000000000000000e+02 5.0000000000000000e+02 ylo yhi
-5.0000000000000000e+02 5.0000000000000000e+02 zlo zhi

Masses

1 1000
2 1000
3 1000
4 1000

Pair Coeffs # lj/cut

1 0.178 10
2 0.178 10
3 0.178 10
4 0.178 10

Angle Coeffs # cosine

1 2
2 2

Atoms # full

2233 64 2 0.0000000000000000e+00 -1.2392408494428042e+02 -2.3769008647126515e+01 -1.7641843270508468e+02 0 0 0
2232 64 2 0.0000000000000000e+00 -1.1449265241675073e+02 -2.0090249941090057e+01 -1.7594792705994055e+02 0 0 0
4441 127 4 0.0000000000000000e+00 -9.4522821968440198e+01 -1.0277754158842658e+00 -1.7881421010156620e+02 0 0 0
4440 127 4 0.0000000000000000e+00 -9.2134893450184506e+01 8.0033697855979540e+00 -1.7961650944925648e+02 0 0 0
4439 127 4 0.0000000000000000e+00 -9.3705883990938275e+01 1.7522162116075609e+01 -1.7846967292240481e+02 0 0 0
4438 127 4 0.0000000000000000e+00 -9.7049699224815100e+01 2.6977346604339260e+01 -1.7721911048588680e+02 0 0 0
4437 127 4 0.0000000000000000e+00 -9.7028311194532151e+01 3.7194978830737909e+01 -1.7924957769107826e+02 0 0 0
2226 64 2 0.0000000000000000e+00 -8.9461483321597669e+01 -4.7942810736013094e+01 -1.6321365813518381e+02 0 0 0
2227 64 2 0.0000000000000000e+00 -9.6874811353713369e+01 -4.1211181862238931e+01 -1.6521745661981242e+02 0 0 0
2229 64 2 0.0000000000000000e+00 -9.8850150170591533e+01 -2.4809927852076321e+01 -1.6982338869829618e+02 0 0 0
2228 64 2 0.0000000000000000e+00 -9.3932361524407924e+01 -3.3488879274919199e+01 -1.7092264187760398e+02 0 0 0
2234 64 2 0.0000000000000000e+00 -1.2811074713613633e+02 -1.6551044254765269e+01 -1.7158449253196358e+02 0 0 0
2235 64 2 0.0000000000000000e+00 -1.2563762953588805e+02 -1.0466209591378655e+01 -1.6439431549334461e+02 0 0 0
2231 64 2 0.0000000000000000e+00 -1.0987266118239681e+02 -1.7101847450686524e+01 -1.6803841902955349e+02 0 0 0
2230 64 1 0.0000000000000000e+00 -1.0044576864120333e+02 -1.5226958326783604e+01 -1.6647715760237747e+02 0 0 0
2237 64 1 0.0000000000000000e+00 -1.1367855361897132e+02 -4.7578858655506073e-01 -1.6032489351521048e+02 0 0 0
4744 136 4 0.0000000000000000e+00 -1.0690558624901198e+02 -6.9428806842402526e+00 -1.6293346936174535e+02 0 0 0
4743 136 3 0.0000000000000000e+00 -1.0385655957585820e+02 1.4862865267557668e+00 -1.6513887428835494e+02 0 0 0
4442 127 3 0.0000000000000000e+00 -9.8598331066271157e+01 -5.3174158517576338e+00 -1.7112766592896818e+02 0 0 0
4443 127 4 0.0000000000000000e+00 -9.7410980606195892e+01 -6.3231312052384858e+00 -1.6163472761258302e+02 0 0 0
2238 64 2 0.0000000000000000e+00 -1.1008072356499261e+02 8.4845833628375420e+00 -1.6261345632640948e+02 0 0 0
4742 136 4 0.0000000000000000e+00 -9.5909675566801809e+01 5.8666437157425646e+00 -1.6790075958210221e+02 0 0 0
4741 136 4 0.0000000000000000e+00 -9.0796617358845779e+01 9.6455974439487271e+00 -1.6070803442903500e+02 0 0 0
582 17 2 0.0000000000000000e+00 -1.0753741757890336e+02 4.6296083633126905e+01 -1.6510401849489401e+02 0 0 0
4436 127 4 0.0000000000000000e+00 -9.6487737227859540e+01 3.8942434660959869e+01 -1.6955586711641888e+02 0 0 0
4435 127 3 0.0000000000000000e+00 -9.6945593424722702e+01 4.6483517391941369e+01 -1.6300756354975724e+02 0 0 0
2225 64 2 0.0000000000000000e+00 -8.4418738322460385e+01 -5.2750087570441870e+01 -1.5627582962826642e+02 0 0 0
2224 64 2 0.0000000000000000e+00 -8.5240735324017692e+01 -5.3266063691922113e+01 -1.4699587915870578e+02 0 0 0
2093 60 2 0.0000000000000000e+00 -8.7187920398032460e+01 -4.2519451579950406e+01 -1.4798099759364075e+02 0 0 0
4746 136 4 0.0000000000000000e+00 -1.1235271332460385e+02 -1.7452009555346315e+01 -1.4740059745485979e+02 0 0 0
4745 136 4 0.0000000000000000e+00 -1.0876482312230897e+02 -1.4062649019352532e+01 -1.5628982614082304e+02 0 0 0
2236 64 2 0.0000000000000000e+00 -1.2103243967046303e+02 -5.7969952279565069e+00 -1.5683492772490183e+02 0 0 0
4444 127 4 0.0000000000000000e+00 -9.8670787223563167e+01 -1.7536310765767997e+00 -1.5294525870193073e+02 0 0 0
4445 127 4 0.0000000000000000e+00 -9.1322188237463635e+01 4.3542102881714753e+00 -1.4886225427305769e+02 0 0 0
2239 64 2 0.0000000000000000e+00 -1.0617450067681573e+02 1.5058629112522958e+01 -1.5563133635460318e+02 0 0 0
2240 64 2 0.0000000000000000e+00 -9.8543856003715163e+01 1.4665048365365232e+01 -1.4905368926022715e+02 0 0 0
6338 182 4 0.0000000000000000e+00 -1.4359790515642959e+02 4.6248856080434344e+01 -1.4873460925728881e+02 0 0 0
2073 60 2 0.0000000000000000e+00 -1.2951963782318487e+02 3.9922277634125990e+01 -1.5285777577407057e+02 0 0 0
580 17 2 0.0000000000000000e+00 -1.1058877588097801e+02 3.6181051129782588e+01 -1.4884979467646451e+02 0 0 0
581 17 2 0.0000000000000000e+00 -1.0869208266424842e+02 4.4036429054393494e+01 -1.5539601303362693e+02 0 0 0
2222 64 2 0.0000000000000000e+00 -9.3858654155238213e+01 -6.4756154879215799e+01 -1.4064585690940572e+02 0 0 0
2223 64 1 0.0000000000000000e+00 -8.9354140897339704e+01 -5.6207412364303501e+01 -1.3894515207135649e+02 0 0 0
2095 60 2 0.0000000000000000e+00 -9.8522265568826327e+01 -3.9805361374473428e+01 -1.3348327890844845e+02 0 0 0
2094 60 2 0.0000000000000000e+00 -9.3709728657040102e+01 -4.2587900215260873e+01 -1.4124552000410816e+02 0 0 0
4747 136 4 0.0000000000000000e+00 -1.1910765092586387e+02 -2.1274473367495528e+01 -1.4021462151517028e+02 0 0 0
5537 159 4 0.0000000000000000e+00 -8.4470400282646850e+01 -3.7972904738299755e+00 -1.3750700202195242e+02 0 0 0
2076 60 1 0.0000000000000000e+00 -1.2350042970611035e+02 1.5653146356626420e+01 -1.3937001590597913e+02 0 0 0
2077 60 2 0.0000000000000000e+00 -1.2110228887980230e+02 8.0006211069488415e+00 -1.3315821537329811e+02 0 0 0
6312 181 4 0.0000000000000000e+00 -1.1274469265127759e+02 1.4804289600044735e+01 -1.3790404623208565e+02 0 0 0
6313 181 4 0.0000000000000000e+00 -1.0592397217767598e+02 7.9472176919402555e+00 -1.3640020494481894e+02 0 0 0
1716 50 2 0.0000000000000000e+00 -1.5232932730608019e+02 2.4959686852600925e+01 -1.3430002633244104e+02 0 0 0
1797 52 2 0.0000000000000000e+00 -1.4255650309984668e+02 3.1857104302395140e+01 -1.3542166169889583e+02 0 0 0
2075 60 2 0.0000000000000000e+00 -1.2401649099789863e+02 2.6270935242552902e+01 -1.3904942513302763e+02 0 0 0
6339 182 3 0.0000000000000000e+00 -1.4352821785170684e+02 4.0862679366518030e+01 -1.4039320399773396e+02 0 0 0
1796 52 1 0.0000000000000000e+00 -1.3509310912239087e+02 3.3386001021076851e+01 -1.4198188957782006e+02 0 0 0
1795 52 2 0.0000000000000000e+00 -1.3168067517881624e+02 4.2986008547654080e+01 -1.4392524944514548e+02 0 0 0
2074 60 2 0.0000000000000000e+00 -1.2497913649714030e+02 3.3771024039015167e+01 -1.4591707395928881e+02 0 0 0
579 17 2 0.0000000000000000e+00 -1.1354606282072946e+02 3.5117949973077266e+01 -1.3966855854273572e+02 0 0 0
5906 169 4 0.0000000000000000e+00 -1.2249775421332616e+02 4.3154813634456971e+01 -1.3983265644851133e+02 0 0 0
561 17 2 0.0000000000000000e+00 -1.0031496845982399e+02 3.9539991565198932e+01 -1.3340343123673165e+02 0 0 0
2220 64 2 0.0000000000000000e+00 -9.8239747139380682e+01 -7.6314521229727589e+01 -1.2552198658991391e+02 0 0 0
2221 64 2 0.0000000000000000e+00 -9.4918178499889066e+01 -6.8839222595569566e+01 -1.3170108890336840e+02 0 0 0
1373 40 2 0.0000000000000000e+00 -9.0571669427761819e+01 -6.4195004794325612e+01 -1.2042841950382241e+02 0 0 0
2096 60 2 0.0000000000000000e+00 -1.0537241911454440e+02 -4.0408582497859975e+01 -1.2624047069048169e+02 0 0 0
5543 159 4 0.0000000000000000e+00 -8.4579003987478629e+01 -3.8211518816802297e+01 -1.3159191797517229e+02 0 0 0
2099 60 2 0.0000000000000000e+00 -1.2404344130409358e+02 -2.2510279835858608e+01 -1.2986923219289147e+02 0 0 0
2098 60 2 0.0000000000000000e+00 -1.1949933699257150e+02 -3.1555539628727608e+01 -1.2945911102959977e+02 0 0 0
2097 60 1 0.0000000000000000e+00 -1.1125053371385938e+02 -3.2369891356184887e+01 -1.2448830180668762e+02 0 0 0
2085 60 2 0.0000000000000000e+00 -9.4169623603692571e+01 -2.8899160696388385e+01 -1.2250759527595413e+02 0 0 0
2086 60 2 0.0000000000000000e+00 -9.1820448906428695e+01 -2.2578349689789828e+01 -1.3010985325348102e+02 0 0 0
2521 73 2 0.0000000000000000e+00 -1.5395458355006701e+02 -1.3751326303310551e+01 -1.2270313860996379e+02 0 0 0
2522 73 2 0.0000000000000000e+00 -1.4455457008212690e+02 -1.8666845498488762e+01 -1.2299415803676419e+02 0 0 0
2100 60 2 0.0000000000000000e+00 -1.3214324910760681e+02 -1.6312853814345537e+01 -1.2824788661626854e+02 0 0 0
4749 136 4 0.0000000000000000e+00 -1.1467511572652521e+02 -1.8003101546492186e+01 -1.2165002170675334e+02 0 0 0
4748 136 4 0.0000000000000000e+00 -1.1311072131127447e+02 -1.9587071317639907e+01 -1.3180444187632520e+02 0 0 0
6316 181 4 0.0000000000000000e+00 -8.9096215559071325e+01 -1.1440756000361969e+01 -1.2872487881013214e+02 0 0 0
2078 60 2 0.0000000000000000e+00 -1.1400392286888402e+02 4.5004099502846590e-01 -1.3011998355465821e+02 0 0 0
2079 60 2 0.0000000000000000e+00 -1.1167257445310105e+02 -5.5873379238540437e+00 -1.2227650704667404e+02 0 0 0
6314 181 4 0.0000000000000000e+00 -1.0332783314211011e+02 2.6615023730410448e-01 -1.3144065875274072e+02 0 0 0
6315 181 4 0.0000000000000000e+00 -9.7651817268048674e+01 -8.0369264608717970e+00 -1.3048580414511619e+02 0 0 0
5536 159 4 0.0000000000000000e+00 -8.7235748680699615e+01 -1.0907621788579116e+00 -1.2844584660025410e+02 0 0 0
5535 159 4 0.0000000000000000e+00 -9.5473499249528587e+01 3.1839353667952386e+00 -1.2521264039453207e+02 0 0 0
1718 50 2 0.0000000000000000e+00 -1.6438477587116279e+02 1.9031089690434786e+01 -1.2245249529864279e+02 0 0 0
1800 52 2 0.0000000000000000e+00 -1.3414080387413497e+02 1.7597000592578276e+01 -1.2244283601217029e+02 0 0 0
1801 52 2 0.0000000000000000e+00 -1.2687844637623287e+02 1.1270615749623587e+01 -1.2395411955059529e+02 0 0 0
1802 52 2 0.0000000000000000e+00 -1.1683195023136132e+02 1.3386191931776677e+01 -1.2523204364068533e+02 0 0 0
1803 52 1 0.0000000000000000e+00 -1.0817176967142127e+02 1.7493574195001656e+01 -1.2697301365156900e+02 0 0 0
5534 159 3 0.0000000000000000e+00 -1.0309741295373566e+02 9.1660585603442932e+00 -1.2179414799265078e+02 0 0 0
1717 50 2 0.0000000000000000e+00 -1.5495408054031341e+02 2.2221835538626046e+01 -1.2505179190195315e+02 0 0 0
1798 52 2 0.0000000000000000e+00 -1.4806350367026812e+02 2.9739329828053201e+01 -1.2704878986702751e+02 0 0 0
1799 52 2 0.0000000000000000e+00 -1.4269654160895902e+02 2.1003551165566108e+01 -1.2551266593865216e+02 0 0 0
6311 181 3 0.0000000000000000e+00 -1.1815604115658174e+02 2.0771250740447886e+01 -1.3151797649143168e+02 0 0 0
6310 181 4 0.0000000000000000e+00 -1.1731574461188090e+02 2.6087115858904092e+01 -1.2230316666516661e+02 0 0 0
1804 52 2 0.0000000000000000e+00 -1.0116804599217504e+02 2.2239707640844784e+01 -1.2255079589657241e+02 0 0 0
6340 182 4 0.0000000000000000e+00 -1.4125071055981982e+02 4.2963472754545933e+01 -1.3117163466955603e+02 0 0 0
6341 182 4 0.0000000000000000e+00 -1.4262120903679852e+02 4.2120985627399378e+01 -1.2160439042575059e+02 0 0 0
5905 169 3 0.0000000000000000e+00 -1.2776465017272353e+02 4.0422419294152007e+01 -1.3205633132217298e+02 0 0 0
5904 169 4 0.0000000000000000e+00 -1.3077930820234224e+02 3.9235013344480159e+01 -1.2287361219052461e+02 0 0 0
578 17 1 0.0000000000000000e+00 -1.1626372834303825e+02 3.9900688564717939e+01 -1.3139629152378564e+02 0 0 0
562 17 2 0.0000000000000000e+00 -1.0414907772417516e+02 4.3210736867202414e+01 -1.2489251191781435e+02 0 0 0
2219 64 2 0.0000000000000000e+00 -1.0157372003450365e+02 -7.7700806123889990e+01 -1.1635136727404027e+02 0 0 0
2218 64 2 0.0000000000000000e+00 -1.0269208839732990e+02 -7.7050384919678905e+01 -1.0649273522679322e+02 0 0 0
1372 40 2 0.0000000000000000e+00 -9.8484349596287501e+01 -6.7780979488521965e+01 -1.1509022692040385e+02 0 0 0
1371 40 2 0.0000000000000000e+00 -1.0451844599936865e+02 -6.6525380135056594e+01 -1.0784542548921893e+02 0 0 0
6500 186 3 0.0000000000000000e+00 -9.1009383714837000e+01 -6.0288652999416939e+01 -1.1022350487446950e+02 0 0 0
6499 186 4 0.0000000000000000e+00 -9.6629029715583329e+01 -5.2304240382343394e+01 -1.0701970441850122e+02 0 0 0
1374 40 2 0.0000000000000000e+00 -8.4313035197364087e+01 -5.6089188167481772e+01 -1.1829625320085157e+02 0 0 0
2525 73 2 0.0000000000000000e+00 -1.5531429251572982e+02 -3.9499306959156037e+01 -1.0580957430505531e+02 0 0 0
6494 186 4 0.0000000000000000e+00 -1.3138711145787352e+02 -3.6119132331792336e+01 -1.1004700681669995e+02 0 0 0
6515 187 4 0.0000000000000000e+00 -1.0791715536915589e+02 -3.8022060382834681e+01 -1.1609351469183287e+02 0 0 0
5545 159 4 0.0000000000000000e+00 -8.6232863838616254e+01 -4.2643986649779997e+01 -1.1337656684990050e+02 0 0 0
2524 73 1 0.0000000000000000e+00 -1.5038399575112811e+02 -3.3347235919384950e+01 -1.1126145737907117e+02 0 0 0
2523 73 2 0.0000000000000000e+00 -1.4744224926091522e+02 -2.6036940185408810e+01 -1.1686503478861235e+02 0 0 0
6493 186 3 0.0000000000000000e+00 -1.4045374228443274e+02 -3.2364018799439741e+01 -1.0696565686864925e+02 0 0 0
6513 187 4 0.0000000000000000e+00 -1.2475109563916938e+02 -2.7823993856217047e+01 -1.1558019871195611e+02 0 0 0
6514 187 3 0.0000000000000000e+00 -1.1728786461802625e+02 -3.4063781406483258e+01 -1.1547983426221779e+02 0 0 0
6516 187 4 0.0000000000000000e+00 -9.8633769788388307e+01 -3.4841259783210184e+01 -1.1288252752843640e+02 0 0 0
2084 60 2 0.0000000000000000e+00 -1.0347497692436602e+02 -2.7754494062279726e+01 -1.1860151894560467e+02 0 0 0
2083 60 1 0.0000000000000000e+00 -1.0973253965583912e+02 -2.3892804831976623e+01 -1.1213075424463740e+02 0 0 0
6517 187 4 0.0000000000000000e+00 -9.3013837769439363e+01 -2.7611974301458133e+01 -1.0968307547251374e+02 0 0 0
6518 187 4 0.0000000000000000e+00 -8.6390374184521505e+01 -2.2028567973887945e+01 -1.1234188085831629e+02 0 0 0
6489 186 4 0.0000000000000000e+00 -1.6127268899923803e+02 -1.1777257185586310e+01 -1.1227347312774872e+02 0 0 0
6490 186 4 0.0000000000000000e+00 -1.5696440143922399e+02 -1.9975921682788602e+01 -1.0899656341254854e+02 0 0 0
6511 187 4 0.0000000000000000e+00 -1.4078421773306050e+02 -1.7768282614911552e+01 -1.1201587203341988e+02 0 0 0
6512 187 4 0.0000000000000000e+00 -1.3078266177205487e+02 -1.9792273699938107e+01 -1.1362868431357612e+02 0 0 0
4750 136 3 0.0000000000000000e+00 -1.1996970492067838e+02 -2.0377012054727796e+01 -1.1342187143963288e+02 0 0 0
2080 60 2 0.0000000000000000e+00 -1.1233715273290568e+02 -9.5469756039525002e+00 -1.1338896381653345e+02 0 0 0
5531 159 4 0.0000000000000000e+00 -1.2329001553950417e+02 -8.7462517495230028e+00 -1.1590845539446272e+02 0 0 0
6519 187 4 0.0000000000000000e+00 -8.6920893738753762e+01 -1.2704799733930690e+01 -1.0858005278302957e+02 0 0 0
6488 186 4 0.0000000000000000e+00 -1.6744236475239839e+02 -3.9103004846871059e+00 -1.1212479560611055e+02 0 0 0
6487 186 4 0.0000000000000000e+00 -1.7326538030868957e+02 4.4182234244963361e+00 -1.1283613356001152e+02 0 0 0
5532 159 4 0.0000000000000000e+00 -1.1785514992901305e+02 -8.5697464132756684e-01 -1.1472694697710669e+02 0 0 0
5533 159 4 0.0000000000000000e+00 -1.1068607990980134e+02 3.9068297686153790e+00 -1.1811596169404046e+02 0 0 0
6486 186 3 0.0000000000000000e+00 -1.7648413661877694e+02 1.3548486018725725e+01 -1.1031228806297507e+02 0 0 0
6295 180 4 0.0000000000000000e+00 -1.5110531896402415e+02 1.5933840593521193e+01 -1.0807745509732565e+02 0 0 0
6296 180 4 0.0000000000000000e+00 -1.5172773997943119e+02 6.3321721618799449e+00 -1.0603931776401605e+02 0 0 0
1719 50 1 0.0000000000000000e+00 -1.6842790614786804e+02 2.0643620061255550e+01 -1.1321691426502777e+02 0 0 0
3313 95 2 0.0000000000000000e+00 -1.2867371709502405e+02 3.1952577890858443e+01 -1.0913086668099197e+02 0 0 0
6309 181 4 0.0000000000000000e+00 -1.1564785113922591e+02 3.0502515638110594e+01 -1.1381462417770427e+02 0 0 0
6307 181 4 0.0000000000000000e+00 -1.0154661472833780e+02 3.0498536453510319e+01 -1.0855700093719982e+02 0 0 0
6308 181 4 0.0000000000000000e+00 -1.1108242356912065e+02 2.8878604419139787e+01 -1.0574934633992366e+02 0 0 0
1806 52 2 0.0000000000000000e+00 -8.6140349312823972e+01 3.2036325434079068e+01 -1.1623217235801972e+02 0 0 0
1805 52 2 0.0000000000000000e+00 -9.4588369212918820e+01 2.6733094844439137e+01 -1.1712873814791030e+02 0 0 0
6306 181 4 0.0000000000000000e+00 -9.1992993751640356e+01 2.9911566317749493e+01 -1.0715965056386885e+02 0 0 0
3312 95 2 0.0000000000000000e+00 -1.3699809434001875e+02 3.8250310785333284e+01 -1.0790985469518209e+02 0 0 0
5903 169 4 0.0000000000000000e+00 -1.2583946858165173e+02 4.2953985742395140e+01 -1.1528962599373389e+02 0 0 0
5902 169 4 0.0000000000000000e+00 -1.1967021267593731e+02 4.4409899051151754e+01 -1.0799474190596671e+02 0 0 0
563 17 2 0.0000000000000000e+00 -1.0487419177046054e+02 4.5461048783982818e+01 -1.1523695116812519e+02 0 0 0
1807 52 2 0.0000000000000000e+00 -8.8804777060116521e+01 4.1855671165742329e+01 -1.1698040369237015e+02 0 0 0
2217 64 2 0.0000000000000000e+00 -9.5312096612174727e+01 -7.1933029442304431e+01 -1.0235595321895420e+02 0 0 0
2216 64 1 0.0000000000000000e+00 -9.1023251246156278e+01 -6.3573013646823533e+01 -9.9143910877024013e+01 0 0 0
1370 40 2 0.0000000000000000e+00 -1.0786493082800334e+02 -5.8725282597991914e+01 -1.0174224007673062e+02 0 0 0
2526 73 2 0.0000000000000000e+00 -1.5877249406666348e+02 -4.2470069693188179e+01 -9.7284772421778072e+01 0 0 0
6496 186 4 0.0000000000000000e+00 -1.1576702659233815e+02 -4.2566516215299004e+01 -1.0007098002701177e+02 0 0 0
6495 186 4 0.0000000000000000e+00 -1.2510294921823282e+02 -3.9589332803319550e+01 -1.0328593685707658e+02 0 0 0
6497 186 4 0.0000000000000000e+00 -1.0591624735673899e+02 -4.2314191240311430e+01 -1.0298380129639067e+02 0 0 0
6498 186 4 0.0000000000000000e+00 -9.7581923488260642e+01 -4.6483037141162995e+01 -9.8878699515430128e+01 0 0 0
5546 159 4 0.0000000000000000e+00 -8.9919617391515743e+01 -4.2693675952928913e+01 -1.0402049854130019e+02 0 0 0
5547 159 4 0.0000000000000000e+00 -9.1053496003141646e+01 -3.7466307181202879e+01 -9.6163515537839558e+01 0 0 0
6491 186 4 0.0000000000000000e+00 -1.5495703613233141e+02 -2.4022127578353366e+01 -1.0031465170142984e+02 0 0 0
6492 186 4 0.0000000000000000e+00 -1.4614489317833394e+02 -2.5242912763449493e+01 -1.0385540354363437e+02 0 0 0
2550 73 2 0.0000000000000000e+00 -1.7084333111445653e+02 -1.0006602424936922e+01 -9.4655483697323092e+01 0 0 0
2551 73 2 0.0000000000000000e+00 -1.6548748970594971e+02 -1.2158370614198322e+01 -1.0326232667081149e+02 0 0 0
2553 73 2 0.0000000000000000e+00 -1.5059007055813356e+02 -1.4598901543440794e+01 -1.0126686484549585e+02 0 0 0
2554 73 2 0.0000000000000000e+00 -1.4391482007182796e+02 -1.4609998950796454e+01 -9.4325257814164615e+01 0 0 0
4752 136 4 0.0000000000000000e+00 -1.2482998808745411e+02 -1.7769514886554713e+01 -9.4983008051813187e+01 0 0 0
4751 136 4 0.0000000000000000e+00 -1.2476388379084077e+02 -1.6804544202078986e+01 -1.0546022585224880e+02 0 0 0
2082 60 2 0.0000000000000000e+00 -1.1417613916310636e+02 -1.9428631394295294e+01 -1.0424690062023512e+02 0 0 0
2081 60 2 0.0000000000000000e+00 -1.0778015937786370e+02 -1.1716092001654825e+01 -1.0458762839566084e+02 0 0 0
2552 73 1 0.0000000000000000e+00 -1.5717482089831952e+02 -7.0972226202338859e+00 -1.0356296916924387e+02 0 0 0
6297 180 3 0.0000000000000000e+00 -1.4880099365232655e+02 -7.6523160196484508e-01 -9.9471731541760107e+01 0 0 0
6298 180 4 0.0000000000000000e+00 -1.4073251269111529e+02 -1.7943496605816327e+00 -9.2614291824758681e+01 0 0 0
5896 169 4 0.0000000000000000e+00 -1.1106705012910798e+02 3.7722247818362806e+00 -9.2895328679203402e+01 0 0 0
2910 84 2 0.0000000000000000e+00 -8.8961541707248017e+01 -1.3048291195952304e+00 -9.5134958257148952e+01 0 0 0
5897 169 4 0.0000000000000000e+00 -1.0539182645479789e+02 1.0993729379399788e+01 -9.6943879516999047e+01 0 0 0
2911 84 2 0.0000000000000000e+00 -9.5450470664952178e+01 5.6830431802782941e+00 -9.6087885803022175e+01 0 0 0
2912 84 2 0.0000000000000000e+00 -9.3007590183646073e+01 1.5493596378753033e+01 -9.9164935115764109e+01 0 0 0
6484 186 4 0.0000000000000000e+00 -1.8383476554816792e+02 2.4972064197222188e+01 -9.7996906521003098e+01 0 0 0
6485 186 4 0.0000000000000000e+00 -1.7968481632709415e+02 2.0962397708916665e+01 -1.0536125363495562e+02 0 0 0
1720 50 2 0.0000000000000000e+00 -1.6843381195955573e+02 2.2617750514210073e+01 -1.0334323228287104e+02 0 0 0
1721 50 2 0.0000000000000000e+00 -1.6355270809105528e+02 1.9662921189853282e+01 -9.5659137580192890e+01 0 0 0
6294 180 4 0.0000000000000000e+00 -1.5562339415408644e+02 2.5038364145657734e+01 -1.0565065175581772e+02 0 0 0
5899 169 4 0.0000000000000000e+00 -1.0241467460636251e+02 3.0472609079250034e+01 -9.3907658272000859e+01 0 0 0
5898 169 3 0.0000000000000000e+00 -1.0350058782713505e+02 2.0857948703744160e+01 -9.6982731938522335e+01 0 0 0
2913 84 2 0.0000000000000000e+00 -9.3228698907498284e+01 2.2953121216240213e+01 -9.2874479632337668e+01 0 0 0
6293 180 4 0.0000000000000000e+00 -1.5715655721718298e+02 3.4098934233863631e+01 -1.0078284200324656e+02 0 0 0
6292 180 4 0.0000000000000000e+00 -1.5707942799533086e+02 4.1673638898002558e+01 -9.4659102296090964e+01 0 0 0
3311 95 2 0.0000000000000000e+00 -1.3990271435801586e+02 3.6925564327077751e+01 -9.8159650556212924e+01 0 0 0
3314 95 2 0.0000000000000000e+00 -1.2188939432274583e+02 3.3462609774627857e+01 -1.0164466212138836e+02 0 0 0
3315 95 1 0.0000000000000000e+00 -1.1547537983544160e+02 3.7943479262875016e+01 -9.5873266097183247e+01 0 0 0
5900 169 4 0.0000000000000000e+00 -1.0730497208291862e+02 3.8672608053607682e+01 -9.8372254819968632e+01 0 0 0
564 17 1 0.0000000000000000e+00 -1.0103039983546051e+02 4.5698225002135921e+01 -1.0544662633960714e+02 0 0 0
6305 181 4 0.0000000000000000e+00 -9.4050331850300239e+01 3.9096136796742584e+01 -1.0308900827677887e+02 0 0 0
1366 40 2 0.0000000000000000e+00 -1.0822689888000119e+02 -7.9687305328115855e+01 -8.1111394066680475e+01 0 0 0
1368 40 2 0.0000000000000000e+00 -1.0841952028398147e+02 -6.2842604908091275e+01 -8.3552042523689195e+01 0 0 0
4199 120 4 0.0000000000000000e+00 -1.2361642464193044e+02 -4.9551609987364557e+01 -7.9046563470429490e+01 0 0 0
1369 40 1 0.0000000000000000e+00 -1.0590690920767034e+02 -5.7154545577314785e+01 -9.2054224898418056e+01 0 0 0
4196 120 4 0.0000000000000000e+00 -1.0436287533226441e+02 -5.3058816189002805e+01 -8.1013410011388359e+01 0 0 0
4195 120 4 0.0000000000000000e+00 -9.4610077705888827e+01 -5.4256801360396118e+01 -7.9485162953431697e+01 0 0 0
1379 40 2 0.0000000000000000e+00 -8.4085325227356137e+01 -5.5865412576992775e+01 -8.2617482559551362e+01 0 0 0
2527 73 2 0.0000000000000000e+00 -1.6205567133648046e+02 -4.0140829318418547e+01 -8.7871182547884743e+01 0 0 0
2528 73 2 0.0000000000000000e+00 -1.5628315062412847e+02 -4.3660392909264694e+01 -8.0884780612859672e+01 0 0 0
4198 120 4 0.0000000000000000e+00 -1.1771040678741230e+02 -4.2489943843265998e+01 -8.2796191939525599e+01 0 0 0
4197 120 3 0.0000000000000000e+00 -1.1192277092205354e+02 -4.8709959569744640e+01 -8.7252021878943694e+01 0 0 0
1382 40 2 0.0000000000000000e+00 -1.0103817121073382e+02 -3.8083565470489660e+01 -8.8508226442085814e+01 0 0 0
1380 40 2 0.0000000000000000e+00 -8.4398117257218303e+01 -4.6103359604379300e+01 -8.1793814396860753e+01 0 0 0
1381 40 2 0.0000000000000000e+00 -9.2289908381090726e+01 -4.2977872204834647e+01 -8.7489427764196904e+01 0 0 0
1383 40 1 0.0000000000000000e+00 -1.0331003968871687e+02 -2.8187486647783924e+01 -8.8557734314689853e+01 0 0 0
5548 159 3 0.0000000000000000e+00 -9.2964700912293367e+01 -3.1928269137506732e+01 -8.7774442193789199e+01 0 0 0
5549 159 4 0.0000000000000000e+00 -8.4428951276760955e+01 -3.2709954980966202e+01 -8.1131055537145230e+01 0 0 0
2549 73 2 0.0000000000000000e+00 -1.6759703483235506e+02 -1.6081076449649096e+01 -8.6890772316814676e+01 0 0 0
2548 73 2 0.0000000000000000e+00 -1.5912963946331161e+02 -1.1525628513332226e+01 -8.3710078621552611e+01 0 0 0
2547 73 2 0.0000000000000000e+00 -1.5140302383306502e+02 -1.5635796696895515e+01 -8.0115566616007627e+01 0 0 0
4753 136 4 0.0000000000000000e+00 -1.2966698472682182e+02 -2.0665212600606832e+01 -8.6376944264056007e+01 0 0 0
2555 73 2 0.0000000000000000e+00 -1.3650636010268033e+02 -1.4408608728890929e+01 -8.8319969103548772e+01 0 0 0
1385 40 2 0.0000000000000000e+00 -1.0229408881740463e+02 -1.3399109724501818e+01 -8.0684264083193113e+01 0 0 0
1384 40 2 0.0000000000000000e+00 -1.0721317936453198e+02 -1.8977653285557619e+01 -8.7736946962821250e+01 0 0 0
5882 169 4 0.0000000000000000e+00 -1.6004505823984462e+02 -6.8323296263450461e-01 -8.5903107143896861e+01 0 0 0
5881 169 4 0.0000000000000000e+00 -1.5263585772653030e+02 4.0235019768096079e+00 -9.0142390479564867e+01 0 0 0
6299 180 4 0.0000000000000000e+00 -1.3053356937255410e+02 -2.5067196716149134e+00 -8.9663993956765921e+01 0 0 0
6300 180 4 0.0000000000000000e+00 -1.2230062132738500e+02 3.8364587043591643e+00 -9.1266227052388217e+01 0 0 0
5895 169 4 0.0000000000000000e+00 -1.0364195240197111e+02 2.3221326996572120e+00 -8.6399117187074083e+01 0 0 0
5894 169 4 0.0000000000000000e+00 -9.6049297399968054e+01 2.1606238272840304e+00 -8.1251011754885880e+01 0 0 0
1722 50 2 0.0000000000000000e+00 -1.5608216456623182e+02 1.7474733051530841e+01 -8.8815111863492021e+01 0 0 0
3731 107 4 0.0000000000000000e+00 -1.3038298730948489e+02 1.5214150447494260e+01 -8.2528933399644103e+01 0 0 0
3732 107 4 0.0000000000000000e+00 -1.3463117012423155e+02 7.1061937961199666e+00 -7.9336250086019859e+01 0 0 0
2918 84 2 0.0000000000000000e+00 -1.1889072528513755e+02 1.1606860833398722e+01 -7.8783047984837935e+01 0 0 0
2916 84 1 0.0000000000000000e+00 -1.0440564727624022e+02 1.6721472467065549e+01 -8.6682346735596369e+01 0 0 0
2917 84 2 0.0000000000000000e+00 -1.0997813555537876e+02 9.5106136000932402e+00 -8.3091205617146215e+01 0 0 0
6483 186 4 0.0000000000000000e+00 -1.8743258921430632e+02 2.8117462157028900e+01 -8.9785867766331648e+01 0 0 0
6482 186 4 0.0000000000000000e+00 -1.8886779491283335e+02 3.2109640903740249e+01 -8.0416892857314735e+01 0 0 0
1723 50 2 0.0000000000000000e+00 -1.5057151670528410e+02 1.9739881018131310e+01 -8.0431090353122627e+01 0 0 0
3730 107 4 0.0000000000000000e+00 -1.2357063336976196e+02 2.2397071977531489e+01 -8.4036965382578401e+01 0 0 0
3729 107 4 0.0000000000000000e+00 -1.1786551131371165e+02 2.9672645310319655e+01 -8.8625517010224002e+01 0 0 0
2915 84 2 0.0000000000000000e+00 -1.0081063940519975e+02 2.3927271388950054e+01 -8.0598829758551176e+01 0 0 0
2914 84 2 0.0000000000000000e+00 -9.3308260483719494e+01 2.9127041282976720e+01 -8.4781160230189414e+01 0 0 0
6289 180 4 0.0000000000000000e+00 -1.5843776202363276e+02 3.3094583093845984e+01 -8.0042010607789877e+01 0 0 0
6290 180 3 0.0000000000000000e+00 -1.5751515993337537e+02 4.2646857685990014e+01 -8.0728285405842072e+01 0 0 0
6291 180 4 0.0000000000000000e+00 -1.6365390931836285e+02 4.4449720737739860e+01 -8.7673273793291486e+01 0 0 0
3309 95 2 0.0000000000000000e+00 -1.4156636517656193e+02 3.4641556787813641e+01 -7.9097608344865662e+01 0 0 0
3310 95 2 0.0000000000000000e+00 -1.3952155554875810e+02 3.4632322340360219e+01 -8.8815464769856277e+01 0 0 0
3316 95 2 0.0000000000000000e+00 -1.1690715279621786e+02 4.4833667233980222e+01 -8.9436515217006246e+01 0 0 0
3728 107 3 0.0000000000000000e+00 -1.0968507359682316e+02 3.4912740668305815e+01 -8.7128134067487053e+01 0 0 0
3727 107 4 0.0000000000000000e+00 -1.0771257085999279e+02 4.0171941585534789e+01 -7.9066754902557022e+01 0 0 0
6246 179 4 0.0000000000000000e+00 -1.2059500806038106e+02 -6.4601021283026540e+01 -6.8067237902612874e+01 0 0 0
6245 179 4 0.0000000000000000e+00 -1.1286691224964753e+02 -7.1311570146169927e+01 -6.8428988433386124e+01 0 0 0
1367 40 2 0.0000000000000000e+00 -1.0815241887061518e+02 -7.0284438067660375e+01 -7.7165277868135973e+01 0 0 0
4200 120 4 0.0000000000000000e+00 -1.3269783937441841e+02 -5.0733580481211547e+01 -7.5709838910517817e+01 0 0 0
6248 179 3 0.0000000000000000e+00 -1.3425057716821220e+02 -5.0694130954812579e+01 -6.6151962157464439e+01 0 0 0
6247 179 4 0.0000000000000000e+00 -1.2892923495076528e+02 -5.8723654154087789e+01 -6.7523545788686675e+01 0 0 0
4194 120 4 0.0000000000000000e+00 -8.8060447656955802e+01 -5.5137510591214749e+01 -7.2912614721627236e+01 0 0 0
2529 73 2 0.0000000000000000e+00 -1.5374091480781308e+02 -4.3167593782404204e+01 -7.1434992550833996e+01 0 0 0
6249 179 4 0.0000000000000000e+00 -1.3991319198899009e+02 -4.2133722785902712e+01 -6.5064124676702136e+01 0 0 0
2540 73 2 0.0000000000000000e+00 -1.2734144532488538e+02 -4.3698312407755850e+01 -6.8005916669976173e+01 0 0 0
2541 73 2 0.0000000000000000e+00 -1.3153314624755072e+02 -3.7138957672059483e+01 -7.5011174772351850e+01 0 0 0
2545 73 1 0.0000000000000000e+00 -1.6252237437304987e+02 -2.2672393161324315e+01 -6.5527867720720906e+01 0 0 0
2544 73 2 0.0000000000000000e+00 -1.5626805683713536e+02 -3.0875193083697404e+01 -6.5548820156661748e+01 0 0 0
2543 73 2 0.0000000000000000e+00 -1.4740937537555772e+02 -2.7996767090901098e+01 -6.9332102729697439e+01 0 0 0
2542 73 2 0.0000000000000000e+00 -1.3822672985631183e+02 -3.1223759779792058e+01 -6.9900781303593064e+01 0 0 0
2546 73 2 0.0000000000000000e+00 -1.5845239254664810e+02 -1.9265109288083355e+01 -7.3989036200689128e+01 0 0 0
4755 136 4 0.0000000000000000e+00 -1.3814820888286170e+02 -2.0817149006264657e+01 -6.7452081006665452e+01 0 0 0
4754 136 4 0.0000000000000000e+00 -1.3268694703177226e+02 -2.0892561497812871e+01 -7.6465198711649080e+01 0 0 0
1387 40 2 0.0000000000000000e+00 -1.0485944007794421e+02 -1.0465432674131762e+01 -6.6248308601623961e+01 0 0 0
1386 40 2 0.0000000000000000e+00 -9.7532548987965882e+01 -8.8618515896953003e+00 -7.2916306941187244e+01 0 0 0
5883 169 4 0.0000000000000000e+00 -1.6171811834682572e+02 -2.8459533526325220e+00 -7.6258205490198506e+01 0 0 0
5884 169 3 0.0000000000000000e+00 -1.5279163035147872e+02 -2.7246835580983322e+00 -7.2530425399002141e+01 0 0 0