LAMMPS data file via write_data, version 5 Jun 2019, timestep = 330000000

7000 atoms
4 atom types
7286 bonds
3 bond types
6600 angles
2 angle types

-5.0000000000000000e+02 5.0000000000000000e+02 xlo xhi
-5.0000000000000000e+02 5.0000000000000000e+02 ylo yhi
-5.0000000000000000e+02 5.0000000000000000e+02 zlo zhi

Masses

1 1000
2 1000
3 1000
4 1000

Pair Coeffs # lj/cut

1 0.178 10
2 0.178 10
3 0.178 10
4 0.178 10

Angle Coeffs # cosine

1 2
2 2

Atoms # full

2229 64 2 0.0000000000000000e+00 -4.1355463950510384e+01 -3.3473133598279077e+01 -1.8488632169906205e+02 0 0 0
2228 64 2 0.0000000000000000e+00 -4.7094860149616551e+01 -4.1039137599404199e+01 -1.8144702751415431e+02 0 0 0
2230 64 1 0.0000000000000000e+00 -4.3999470657229551e+01 -2.3706639990887485e+01 -1.8478444992482358e+02 0 0 0
2232 64 2 0.0000000000000000e+00 -5.4133649018190717e+01 -7.3545864008444513e+00 -1.8102116553737326e+02 0 0 0
2231 64 2 0.0000000000000000e+00 -4.6155664726298809e+01 -1.4489950701799042e+01 -1.8160280138765316e+02 0 0 0
5915 169 4 0.0000000000000000e+00 -1.4014405004936981e+02 2.1346039582563513e+01 -1.9457782642276931e+02 0 0 0
5914 169 4 0.0000000000000000e+00 -1.3428345268516622e+02 2.5387030257310254e+01 -1.8772766003048798e+02 0 0 0
2066 60 2 0.0000000000000000e+00 -1.1209610904462127e+02 1.8812243266277900e+01 -1.8415179666639131e+02 0 0 0
6510 186 4 0.0000000000000000e+00 -8.7693730697144531e+01 -9.9948512711660399e+01 -1.6966401675219279e+02 0 0 0
6509 186 4 0.0000000000000000e+00 -7.7986102769174437e+01 -9.7269139777436109e+01 -1.6780056309812267e+02 0 0 0
6508 186 4 0.0000000000000000e+00 -6.9920088455894486e+01 -9.1592875955346827e+01 -1.6985898386392606e+02 0 0 0
2224 64 2 0.0000000000000000e+00 -6.6644041149422350e+01 -6.9424057599735292e+01 -1.6926775157829002e+02 0 0 0
2226 64 2 0.0000000000000000e+00 -5.5213854368535458e+01 -5.6634208268270719e+01 -1.7324729395737515e+02 0 0 0
4550 130 4 0.0000000000000000e+00 -4.3739248688651891e+01 -5.7466872695790798e+01 -1.7431018837213202e+02 0 0 0
2227 64 2 0.0000000000000000e+00 -5.0319352063484196e+01 -4.8393346618719271e+01 -1.7566353036483719e+02 0 0 0
4445 127 4 0.0000000000000000e+00 -3.3653025625920918e+01 -4.8697763107117794e+01 -1.7591125179681046e+02 0 0 0
4740 136 4 0.0000000000000000e+00 -6.2899020408391571e+01 -2.9446609556537755e+01 -1.7642771559744179e+02 0 0 0
4739 136 4 0.0000000000000000e+00 -5.9364904021427805e+01 -3.5192043579920991e+01 -1.6915013505452345e+02 0 0 0
4444 127 4 0.0000000000000000e+00 -3.9047650179140874e+01 -4.0679077266981771e+01 -1.7443598433305414e+02 0 0 0
4443 127 4 0.0000000000000000e+00 -4.4644720205463898e+01 -3.2038398248089401e+01 -1.7524977954950441e+02 0 0 0
4742 136 4 0.0000000000000000e+00 -7.9751988032936111e+01 -1.8336253302454324e+01 -1.7512664580258490e+02 0 0 0
4741 136 4 0.0000000000000000e+00 -7.1055698095202033e+01 -2.3924343512401418e+01 -1.7796304790301801e+02 0 0 0
4441 127 4 0.0000000000000000e+00 -5.6398317306273967e+01 -1.7325256422582171e+01 -1.7688384684567799e+02 0 0 0
4442 127 3 0.0000000000000000e+00 -5.1967755341930584e+01 -2.5986317846419002e+01 -1.7681681671931503e+02 0 0 0
4743 136 3 0.0000000000000000e+00 -8.5519259643275447e+01 -1.2442451969537611e+01 -1.6957116436651549e+02 0 0 0
2237 64 1 0.0000000000000000e+00 -8.1681352301560352e+01 -2.3543019091025914e+00 -1.6848265361415798e+02 0 0 0
4439 127 4 0.0000000000000000e+00 -6.6740074254085968e+01 -4.9773828259426356e+00 -1.6753897478879625e+02 0 0 0
4440 127 4 0.0000000000000000e+00 -6.3627979574280587e+01 -1.1576809557652231e+01 -1.7403695767646894e+02 0 0 0
2069 60 1 0.0000000000000000e+00 -1.3430011462943600e+02 1.1723695933658586e+01 -1.6961498850038882e+02 0 0 0
2236 64 2 0.0000000000000000e+00 -8.0471359814927908e+01 7.4455941605988469e+00 -1.6717452091132907e+02 0 0 0
2234 64 2 0.0000000000000000e+00 -6.6121349624353769e+01 8.0484826637505371e+00 -1.7897526286633732e+02 0 0 0
2235 64 2 0.0000000000000000e+00 -7.1669953979488326e+01 9.9075501922911933e+00 -1.7136950309945203e+02 0 0 0
2233 64 2 0.0000000000000000e+00 -6.0291093902387985e+01 -6.3300516602497345e-02 -1.8080774664011022e+02 0 0 0
5912 169 3 0.0000000000000000e+00 -1.3217949702308212e+02 2.2412432257577425e+01 -1.6824232774285804e+02 0 0 0
5913 169 4 0.0000000000000000e+00 -1.3611014731895625e+02 2.4281412635349508e+01 -1.7786065285173362e+02 0 0 0
2068 60 2 0.0000000000000000e+00 -1.2542781264920237e+02 1.5577554859490919e+01 -1.7121985024428278e+02 0 0 0
2067 60 2 0.0000000000000000e+00 -1.2096189306799879e+02 1.7380344017104235e+01 -1.8050274775932630e+02 0 0 0
6307 181 4 0.0000000000000000e+00 -9.3475845303812719e+01 1.4578242260298683e+01 -1.7264748288804122e+02 0 0 0
6306 181 4 0.0000000000000000e+00 -8.4701748844641884e+01 2.0088088766397849e+01 -1.7193511720314103e+02 0 0 0
2222 64 2 0.0000000000000000e+00 -7.3191707203780751e+01 -8.4974738265522134e+01 -1.5918166712939055e+02 0 0 0
6507 186 3 0.0000000000000000e+00 -6.4299544588468791e+01 -8.6611198914432677e+01 -1.6319511138169869e+02 0 0 0
6506 186 4 0.0000000000000000e+00 -5.8594609913384900e+01 -9.1241681664559849e+01 -1.5648150655006648e+02 0 0 0
2626 76 2 0.0000000000000000e+00 -3.5611300844592940e+01 -8.3292122948370093e+01 -1.5407685563586733e+02 0 0 0
2223 64 1 0.0000000000000000e+00 -7.0433497967455779e+01 -7.7965343511865086e+01 -1.6593909314058465e+02 0 0 0
1634 47 2 0.0000000000000000e+00 -2.7336918704145045e+01 -7.0644924043364099e+01 -1.6308411057467254e+02 0 0 0
2225 64 2 0.0000000000000000e+00 -6.1405671085065109e+01 -6.1585804337497372e+01 -1.6617558569931609e+02 0 0 0
1632 47 2 0.0000000000000000e+00 -4.5520791184996547e+01 -6.3827255396719984e+01 -1.5694855341165669e+02 0 0 0
1633 47 2 0.0000000000000000e+00 -3.6659310999766006e+01 -6.8228133102645131e+01 -1.6055797937324698e+02 0 0 0
4549 130 4 0.0000000000000000e+00 -4.0063113590218215e+01 -5.5455340124068400e+01 -1.6525709767609399e+02 0 0 0
4548 130 4 0.0000000000000000e+00 -3.2067745927284385e+01 -5.3497811788414047e+01 -1.5912956616964308e+02 0 0 0
1626 47 2 0.0000000000000000e+00 -6.6440508748611947e+01 -3.2805806829034083e+01 -1.5745804884133457e+02 0 0 0
4738 136 4 0.0000000000000000e+00 -5.5670935533749208e+01 -4.0787753389729204e+01 -1.6165139080437856e+02 0 0 0
4734 136 4 0.0000000000000000e+00 -2.5542457707235343e+01 -3.6783710768728369e+01 -1.5648259002937974e+02 0 0 0
4744 136 4 0.0000000000000000e+00 -8.4910141072491498e+01 -1.8517754300077744e+01 -1.6144388201960754e+02 0 0 0
1625 47 2 0.0000000000000000e+00 -6.7011051998297944e+01 -2.8235971018051227e+01 -1.6639005567584485e+02 0 0 0
1624 47 2 0.0000000000000000e+00 -5.9453077073327123e+01 -2.2344069147731719e+01 -1.6205853786130490e+02 0 0 0
1623 47 2 0.0000000000000000e+00 -5.0025462281682799e+01 -2.1145123742775539e+01 -1.6390290123447130e+02 0 0 0
1622 47 2 0.0000000000000000e+00 -4.1889327761536485e+01 -1.9987987866057054e+01 -1.5689628568309467e+02 0 0 0
2238 64 2 0.0000000000000000e+00 -8.9042410429872618e+01 -2.4637609261772431e+00 -1.6177301664130812e+02 0 0 0
5536 159 4 0.0000000000000000e+00 -7.4724791725260872e+01 -3.5541652494771476e+00 -1.5550172882657753e+02 0 0 0
1540 44 2 0.0000000000000000e+00 -5.5114350231094917e+01 -7.1157747037195556e+00 -1.6575244267027117e+02 0 0 0
1539 44 2 0.0000000000000000e+00 -4.9697302847406597e+01 -9.2563260643465881e+00 -1.5734776152930650e+02 0 0 0
2071 60 2 0.0000000000000000e+00 -1.4895910439839301e+02 7.3986090016146600e+00 -1.5820545896402732e+02 0 0 0
2070 60 2 0.0000000000000000e+00 -1.4126851119558447e+02 7.1725757543640141e+00 -1.6424096024332394e+02 0 0 0
6309 181 4 0.0000000000000000e+00 -9.7146116517132683e+01 7.2720513058595753e+00 -1.5391309375724890e+02 0 0 0
6308 181 4 0.0000000000000000e+00 -9.4556838765607651e+01 1.0489640443611284e+01 -1.6334654778036438e+02 0 0 0
5535 159 4 0.0000000000000000e+00 -7.7144736167074171e+01 5.7225878124791008e+00 -1.5792417293499537e+02 0 0 0
4437 127 4 0.0000000000000000e+00 -6.3768283531301144e+01 5.4059095958880663e+00 -1.5474256781848425e+02 0 0 0
4438 127 4 0.0000000000000000e+00 -6.1996447056007106e+01 2.8960091003661392e+00 -1.6430727082598818e+02 0 0 0
1803 52 1 0.0000000000000000e+00 -7.6023056431812023e+01 1.8356060943109476e+01 -1.5985841441696275e+02 0 0 0
6505 186 4 0.0000000000000000e+00 -5.8538973624933455e+01 -9.7064640114282568e+01 -1.4809235139448978e+02 0 0 0
6504 186 4 0.0000000000000000e+00 -6.1669771644169934e+01 -9.5896233393362152e+01 -1.3940733770532270e+02 0 0 0
2220 64 2 0.0000000000000000e+00 -6.9493669109623454e+01 -8.5239337231553748e+01 -1.4170459168974142e+02 0 0 0
2221 64 2 0.0000000000000000e+00 -6.7657065778778019e+01 -8.3697079928985744e+01 -1.5132016652564243e+02 0 0 0
2627 76 2 0.0000000000000000e+00 -2.7010558058280633e+01 -7.9227240572406004e+01 -1.5274061735333106e+02 0 0 0
6335 181 4 0.0000000000000000e+00 -9.1778423912729664e+01 -6.2487576710521552e+01 -1.4845178587898189e+02 0 0 0
6334 181 4 0.0000000000000000e+00 -8.7174200011629409e+01 -5.5589931294661802e+01 -1.4350671699062389e+02 0 0 0
6333 181 4 0.0000000000000000e+00 -7.9183486373168151e+01 -5.9990096635565976e+01 -1.3953327240823074e+02 0 0 0
1631 47 2 0.0000000000000000e+00 -5.3276718651999168e+01 -6.3589431388373406e+01 -1.5075397675126652e+02 0 0 0
1630 47 2 0.0000000000000000e+00 -5.8838169658905130e+01 -5.6731811104220064e+01 -1.4593349835365251e+02 0 0 0
5434 156 4 0.0000000000000000e+00 -3.2232038297503578e+01 -5.9730171620791033e+01 -1.4807708455632033e+02 0 0 0
5435 156 4 0.0000000000000000e+00 -2.4794153935821971e+01 -6.6454671061361438e+01 -1.5125787470330428e+02 0 0 0
5541 159 3 0.0000000000000000e+00 -8.2448686822489108e+01 -4.4564987948372938e+01 -1.4230789026895087e+02 0 0 0
1629 47 2 0.0000000000000000e+00 -6.6885953471725173e+01 -5.2463996301371154e+01 -1.4353412748840620e+02 0 0 0
1628 47 1 0.0000000000000000e+00 -7.1557718197892797e+01 -4.3389311487432174e+01 -1.4185634271140259e+02 0 0 0
5432 156 4 0.0000000000000000e+00 -4.7213184636974063e+01 -4.7561694676006418e+01 -1.4475490361014363e+02 0 0 0
5433 156 4 0.0000000000000000e+00 -4.0245322073347417e+01 -5.4268986779340445e+01 -1.4566633148159829e+02 0 0 0
4547 130 3 0.0000000000000000e+00 -2.7417493887761395e+01 -5.1108711336555793e+01 -1.5069436883088321e+02 0 0 0
4546 130 4 0.0000000000000000e+00 -2.4441699660570144e+01 -5.1793768754158705e+01 -1.4128052639669542e+02 0 0 0
5540 159 4 0.0000000000000000e+00 -7.7791933488632708e+01 -4.1439864313528901e+01 -1.5140685752632626e+02 0 0 0
2090 60 1 0.0000000000000000e+00 -7.9970354353192874e+01 -3.2829500138572136e+01 -1.4029683548828137e+02 0 0 0
2089 60 2 0.0000000000000000e+00 -8.6563321011243261e+01 -2.9240638468807301e+01 -1.4672990911559893e+02 0 0 0
1627 47 2 0.0000000000000000e+00 -6.6844773969939922e+01 -3.9170074057957464e+01 -1.4918529700322975e+02 0 0 0
5539 159 4 0.0000000000000000e+00 -7.4624190607550105e+01 -3.2340292973307669e+01 -1.5090043699652600e+02 0 0 0
5429 156 3 0.0000000000000000e+00 -6.8755034303361725e+01 -3.2148867444861423e+01 -1.4214197831499459e+02 0 0 0
4737 136 4 0.0000000000000000e+00 -5.3476744182662969e+01 -3.5510114819305805e+01 -1.5284792877555941e+02 0 0 0
4736 136 3 0.0000000000000000e+00 -4.3665276890390651e+01 -3.3155741451980454e+01 -1.5250720338819769e+02 0 0 0
3019 87 2 0.0000000000000000e+00 -4.3331021800746690e+01 -3.3332124377772502e+01 -1.4178547271598663e+02 0 0 0
4735 136 4 0.0000000000000000e+00 -3.3817908199934237e+01 -3.3700023440736324e+01 -1.5125721085251189e+02 0 0 0
3020 87 2 0.0000000000000000e+00 -3.3058316772575026e+01 -3.6508558883661841e+01 -1.4091439830625507e+02 0 0 0
3021 87 1 0.0000000000000000e+00 -2.6069373176631959e+01 -4.1309834965884001e+01 -1.4576176968588368e+02 0 0 0
6312 181 4 0.0000000000000000e+00 -1.0594472986975796e+02 -1.5831688420010588e+01 -1.4547873647243685e+02 0 0 0
2088 60 2 0.0000000000000000e+00 -9.5889084204326920e+01 -2.5996711462775682e+01 -1.4666353502732008e+02 0 0 0
2087 60 2 0.0000000000000000e+00 -1.0309478374030424e+02 -2.5507001369945236e+01 -1.3990969787940233e+02 0 0 0
4745 136 4 0.0000000000000000e+00 -8.2092740740923162e+01 -2.1154963061300492e+01 -1.5269413839963906e+02 0 0 0
4746 136 4 0.0000000000000000e+00 -8.3924302842978634e+01 -1.8988958765579383e+01 -1.4304962331507940e+02 0 0 0
5538 159 4 0.0000000000000000e+00 -7.3478546439131506e+01 -2.2218367593578410e+01 -1.5224426225420203e+02 0 0 0
3018 87 2 0.0000000000000000e+00 -5.1600833046860615e+01 -2.7892560968527913e+01 -1.4513057996160416e+02 0 0 0
3017 87 2 0.0000000000000000e+00 -5.4899866597129019e+01 -1.8718099177390489e+01 -1.4715823494897009e+02 0 0 0
1621 47 1 0.0000000000000000e+00 -3.8545143180926793e+01 -2.3492032747407105e+01 -1.4867478685539376e+02 0 0 0
1620 47 2 0.0000000000000000e+00 -3.3875719567193684e+01 -1.8452905683804179e+01 -1.4088623808070693e+02 0 0 0
2074 60 2 0.0000000000000000e+00 -1.3140267186733402e+02 -2.3920199624875438e+00 -1.4569490444556001e+02 0 0 0
6311 181 3 0.0000000000000000e+00 -1.0647880989955259e+02 -5.1492009631930857e+00 -1.4799981686668099e+02 0 0 0
2239 64 2 0.0000000000000000e+00 -9.0065033911156192e+01 -5.8541971035509626e+00 -1.5289068585482349e+02 0 0 0
5537 159 4 0.0000000000000000e+00 -7.7215902354815526e+01 -1.2544312752000657e+01 -1.5255128133049135e+02 0 0 0
2240 64 2 0.0000000000000000e+00 -8.3683510583106099e+01 -2.3735033851682950e+00 -1.4553765243931090e+02 0 0 0
3015 87 2 0.0000000000000000e+00 -6.7286885700797214e+01 -7.0413801253269792e+00 -1.4137444415284858e+02 0 0 0
3016 87 2 0.0000000000000000e+00 -6.0213514943551914e+01 -1.0361005653283531e+01 -1.4729752416378915e+02 0 0 0
1538 44 2 0.0000000000000000e+00 -4.3457110287520656e+01 -4.2614119082155524e+00 -1.5076936162162588e+02 0 0 0
1537 44 1 0.0000000000000000e+00 -3.6779627953542494e+01 -1.8052833471784624e+00 -1.4298597467118671e+02 0 0 0
2072 60 2 0.0000000000000000e+00 -1.5078727877300645e+02 2.4077343402175280e+00 -1.4957689659190197e+02 0 0 0
2073 60 2 0.0000000000000000e+00 -1.4095694527460074e+02 1.3707724731385305e+00 -1.4666703020414090e+02 0 0 0
2075 60 2 0.0000000000000000e+00 -1.2207825470500676e+02 -3.5072988521486582e-02 -1.4615647348494880e+02 0 0 0
2076 60 1 0.0000000000000000e+00 -1.1329804910838068e+02 1.2535769692936787e+00 -1.4234279251794123e+02 0 0 0
6310 181 4 0.0000000000000000e+00 -1.0370035891521078e+02 4.2660719314745359e+00 -1.4713611534079266e+02 0 0 0
5534 159 3 0.0000000000000000e+00 -7.1937500132037073e+01 1.1858486561250988e+01 -1.5191999628347028e+02 0 0 0
4436 127 4 0.0000000000000000e+00 -5.9210904971757060e+01 2.9933180826429289e+00 -1.4573859006676227e+02 0 0 0
6338 182 4 0.0000000000000000e+00 -1.4294304592075892e+02 2.3818900113148509e+01 -1.4111704900024978e+02 0 0 0
1797 52 2 0.0000000000000000e+00 -1.2507502892304687e+02 2.1098229985036411e+01 -1.4409594856190839e+02 0 0 0
1798 52 2 0.0000000000000000e+00 -1.1726683986517189e+02 1.6081438907367541e+01 -1.4702680621825988e+02 0 0 0
1799 52 2 0.0000000000000000e+00 -1.0856873983113698e+02 1.7169339901152586e+01 -1.4414589773460227e+02 0 0 0
1800 52 2 0.0000000000000000e+00 -9.9719078635832716e+01 2.1903281290591877e+01 -1.4717364729273430e+02 0 0 0
1801 52 2 0.0000000000000000e+00 -9.0965057043916872e+01 1.7020085595373509e+01 -1.4854173325327741e+02 0 0 0
1802 52 2 0.0000000000000000e+00 -8.0652132144393917e+01 1.8586084431300090e+01 -1.5037677839022825e+02 0 0 0
5533 159 4 0.0000000000000000e+00 -6.7787642296041724e+01 1.7600012532380298e+01 -1.4480052233648490e+02 0 0 0
2219 64 2 0.0000000000000000e+00 -7.3023213694176405e+01 -8.5305754644519567e+01 -1.3204487809052850e+02 0 0 0
6503 186 4 0.0000000000000000e+00 -5.9433547176169924e+01 -9.0531451765959815e+01 -1.3117530058502905e+02 0 0 0
1376 40 1 0.0000000000000000e+00 -7.8653268062267159e+01 -6.9337129293043091e+01 -1.3608866287672677e+02 0 0 0
2218 64 2 0.0000000000000000e+00 -7.4587648793798493e+01 -7.7561176020061779e+01 -1.2630720817012785e+02 0 0 0
1377 40 2 0.0000000000000000e+00 -6.9401092478343770e+01 -7.1413532222938215e+01 -1.3481198844256207e+02 0 0 0
1375 40 2 0.0000000000000000e+00 -8.7121544572217800e+01 -6.8534868622254166e+01 -1.3030651657629315e+02 0 0 0
6332 181 3 0.0000000000000000e+00 -7.1652387842795292e+01 -6.1157519586353430e+01 -1.3269804023787168e+02 0 0 0
6298 180 4 0.0000000000000000e+00 -1.6043729534321852e+02 -4.6895104864518643e+01 -1.2757374877063026e+02 0 0 0
5542 159 4 0.0000000000000000e+00 -8.0707088622643212e+01 -4.8834828224641868e+01 -1.3344480888790642e+02 0 0 0
5543 159 4 0.0000000000000000e+00 -9.0166977055414421e+01 -5.1235898898785891e+01 -1.3228986130522091e+02 0 0 0
6331 181 4 0.0000000000000000e+00 -6.4496169479062587e+01 -5.4265243117006129e+01 -1.2964899388221903e+02 0 0 0
2092 60 2 0.0000000000000000e+00 -7.1700187355169419e+01 -4.4184878026986212e+01 -1.2753564723605582e+02 0 0 0
5431 156 4 0.0000000000000000e+00 -5.4413952652188236e+01 -4.5458885870891280e+01 -1.3833691408935209e+02 0 0 0
6330 181 4 0.0000000000000000e+00 -5.9566509388294193e+01 -4.6280229194975661e+01 -1.2938990984422844e+02 0 0 0
6297 180 3 0.0000000000000000e+00 -1.5231707952963362e+02 -4.0729610608582838e+01 -1.2828955178535560e+02 0 0 0
6296 180 4 0.0000000000000000e+00 -1.4522069593098752e+02 -3.3398656969051466e+01 -1.2973132747140707e+02 0 0 0
2091 60 2 0.0000000000000000e+00 -7.8895523167913666e+01 -3.9083520321300284e+01 -1.3258249790625638e+02 0 0 0
6329 181 4 0.0000000000000000e+00 -5.4582370198063998e+01 -3.7572301576683543e+01 -1.2889981420859948e+02 0 0 0
2208 64 2 0.0000000000000000e+00 -6.2745106468756582e+01 -3.2258298493295470e+01 -1.2852376703913112e+02 0 0 0
5430 156 4 0.0000000000000000e+00 -6.1330241903240434e+01 -3.7749538221919352e+01 -1.3837170749461012e+02 0 0 0
6328 181 4 0.0000000000000000e+00 -4.7116706030477985e+01 -3.1907201276248230e+01 -1.2748550548171580e+02 0 0 0
2086 60 2 0.0000000000000000e+00 -1.0449241945692759e+02 -2.6972260173167243e+01 -1.3019817096110739e+02 0 0 0
6313 181 4 0.0000000000000000e+00 -1.0106504082220482e+02 -1.5858233213862936e+01 -1.3703788301125948e+02 0 0 0
4748 136 4 0.0000000000000000e+00 -9.5216250844494255e+01 -2.1852642473091780e+01 -1.2897947168492394e+02 0 0 0
4747 136 4 0.0000000000000000e+00 -8.6773142468645773e+01 -1.9287443152464675e+01 -1.3372158304815761e+02 0 0 0
5427 156 4 0.0000000000000000e+00 -7.8706741001022323e+01 -2.4308727016242287e+01 -1.2799920170469672e+02 0 0 0
5428 156 4 0.0000000000000000e+00 -7.3453547575192786e+01 -2.5528708244576698e+01 -1.3588308354182431e+02 0 0 0
2206 64 2 0.0000000000000000e+00 -6.6378618612457586e+01 -1.5306363186736126e+01 -1.3341595172018324e+02 0 0 0
5426 156 4 0.0000000000000000e+00 -7.5935201123735865e+01 -1.4920493493663628e+01 -1.2695109129066786e+02 0 0 0
2207 64 2 0.0000000000000000e+00 -6.0559069654980327e+01 -2.3293511687676972e+01 -1.3050093297161229e+02 0 0 0
6327 181 4 0.0000000000000000e+00 -3.9801963094559689e+01 -2.5057515155492105e+01 -1.2879791979988974e+02 0 0 0
6326 181 4 0.0000000000000000e+00 -4.0840529349146124e+01 -1.6740703135545616e+01 -1.3415456365601565e+02 0 0 0
1619 47 2 0.0000000000000000e+00 -2.9686704134415670e+01 -2.0131354232489670e+01 -1.3118449427024726e+02 0 0 0
6314 181 4 0.0000000000000000e+00 -9.4796147924031501e+01 -1.0035548090931981e+01 -1.3248426644743520e+02 0 0 0
6325 181 3 0.0000000000000000e+00 -3.9541465664417309e+01 -7.2098776643710361e+00 -1.3345929609442865e+02 0 0 0
2077 60 2 0.0000000000000000e+00 -1.0587077191305866e+02 4.6711228556705944e+00 -1.3726522771871720e+02 0 0 0
2078 60 2 0.0000000000000000e+00 -9.9382679751485597e+01 2.9871235557842519e+00 -1.3028783955014538e+02 0 0 0
3014 87 1 0.0000000000000000e+00 -6.4785527782327591e+01 4.2785649802846032e-01 -1.3562000077583309e+02 0 0 0
4435 127 3 0.0000000000000000e+00 -5.9997757529662330e+01 9.9742513626541172e+00 -1.3918119905735574e+02 0 0 0
3013 87 2 0.0000000000000000e+00 -6.1465897702235623e+01 7.3922098689159634e+00 -1.2881513661242408e+02 0 0 0
6324 181 4 0.0000000000000000e+00 -4.5150104009044675e+01 1.4297980791573590e+00 -1.3218792587519729e+02 0 0 0
1536 44 2 0.0000000000000000e+00 -3.6284075663415635e+01 5.2152455501475234e+00 -1.3608225254699525e+02 0 0 0
6337 182 4 0.0000000000000000e+00 -1.4894155514660383e+02 2.5344829424056631e+01 -1.3276114648088236e+02 0 0 0
5907 169 4 0.0000000000000000e+00 -1.1142169340275879e+02 2.4786624897864641e+01 -1.2941194679781307e+02 0 0 0
4432 127 4 0.0000000000000000e+00 -7.5270065578123251e+01 2.2732608346962305e+01 -1.3929363917276848e+02 0 0 0
4433 127 4 0.0000000000000000e+00 -7.4920085591016289e+01 1.9639169180066030e+01 -1.2946256339752370e+02 0 0 0
4434 127 4 0.0000000000000000e+00 -6.6588105521454992e+01 1.5250594085119316e+01 -1.3328934593473113e+02 0 0 0
3012 87 2 0.0000000000000000e+00 -5.7523801945976601e+01 1.6877312647096645e+01 -1.2643041452693099e+02 0 0 0
1535 44 2 0.0000000000000000e+00 -3.5863035091611842e+01 1.3659536471244563e+01 -1.3111118069695263e+02 0 0 0
1534 44 2 0.0000000000000000e+00 -2.6279785063524461e+01 1.3004767079905351e+01 -1.2828982139501701e+02 0 0 0
6502 186 4 0.0000000000000000e+00 -6.6026389178190072e+01 -8.7993524925850238e+01 -1.2422419604566380e+02 0 0 0
6501 186 4 0.0000000000000000e+00 -7.2004125237108184e+01 -8.2714941898891595e+01 -1.1811631960548200e+02 0 0 0
1373 40 2 0.0000000000000000e+00 -9.1225227396742596e+01 -7.8598295005453394e+01 -1.1402382296784430e+02 0 0 0
1374 40 2 0.0000000000000000e+00 -9.1666937539683218e+01 -7.4468724455204963e+01 -1.2364462875355292e+02 0 0 0
1378 40 2 0.0000000000000000e+00 -6.5774787138372361e+01 -7.1261330072639851e+01 -1.2540582519616426e+02 0 0 0
6500 186 3 0.0000000000000000e+00 -7.4143467984138525e+01 -7.3097552370236301e+01 -1.1601723967179082e+02 0 0 0
1379 40 2 0.0000000000000000e+00 -6.1206234429573342e+01 -7.2346253907144359e+01 -1.1623350796765938e+02 0 0 0
6300 180 4 0.0000000000000000e+00 -1.7379357791167968e+02 -5.5696035350719349e+01 -1.2049427618483617e+02 0 0 0
2217 64 2 0.0000000000000000e+00 -7.8138713032033053e+01 -6.8365054716147313e+01 -1.2390316422089290e+02 0 0 0
6499 186 4 0.0000000000000000e+00 -7.9054929846971859e+01 -6.4369919076666292e+01 -1.1292850265687646e+02 0 0 0
2216 64 1 0.0000000000000000e+00 -6.9672610864691507e+01 -6.3981391599484731e+01 -1.2130933133919268e+02 0 0 0
2215 64 2 0.0000000000000000e+00 -6.2665190055841549e+01 -5.6511763072651803e+01 -1.1868737997150463e+02 0 0 0
1611 47 2 0.0000000000000000e+00 -3.3186332536541805e+01 -6.0101668673224189e+01 -1.1267342872983387e+02 0 0 0
6299 180 4 0.0000000000000000e+00 -1.7031876833971069e+02 -4.7894474005571126e+01 -1.2547846024039174e+02 0 0 0
2550 73 2 0.0000000000000000e+00 -1.4930351277281164e+02 -4.5656984394729264e+01 -1.1965645032206221e+02 0 0 0
5544 159 4 0.0000000000000000e+00 -9.2820715307734076e+01 -4.5612767014134768e+01 -1.2497290338873400e+02 0 0 0
2094 60 2 0.0000000000000000e+00 -7.9091574901959603e+01 -5.0713460407690491e+01 -1.1339948384265993e+02 0 0 0
2093 60 2 0.0000000000000000e+00 -7.5023945344156544e+01 -4.3846551604409271e+01 -1.1893360890572295e+02 0 0 0
2210 64 2 0.0000000000000000e+00 -6.3737360987071462e+01 -4.3241433666307081e+01 -1.1270735829977018e+02 0 0 0
2214 64 2 0.0000000000000000e+00 -5.5631323718410933e+01 -5.1525507945691068e+01 -1.1378978428412272e+02 0 0 0
2551 73 2 0.0000000000000000e+00 -1.5869678972429929e+02 -4.1100470380668959e+01 -1.1928969327667775e+02 0 0 0
2552 73 1 0.0000000000000000e+00 -1.5500829507585618e+02 -3.1707134718143685e+01 -1.2260717578812034e+02 0 0 0
2549 73 2 0.0000000000000000e+00 -1.4672683509573039e+02 -3.6351341434155188e+01 -1.1623643229225057e+02 0 0 0
2085 60 2 0.0000000000000000e+00 -1.0564473882173587e+02 -2.9130284303246210e+01 -1.2045102980949352e+02 0 0 0
5545 159 4 0.0000000000000000e+00 -8.9092629305905689e+01 -4.0283656230645917e+01 -1.1720226797741748e+02 0 0 0
5546 159 4 0.0000000000000000e+00 -8.1647059054683282e+01 -3.6985794624966232e+01 -1.1244351010142201e+02 0 0 0
2209 64 1 0.0000000000000000e+00 -6.6091534722663241e+01 -3.6708561135029697e+01 -1.2059749757891991e+02 0 0 0
2213 64 2 0.0000000000000000e+00 -5.2190339723316356e+01 -4.1803222306451765e+01 -1.1319505509144959e+02 0 0 0
2212 64 2 0.0000000000000000e+00 -5.2260928514458165e+01 -3.2448447571583529e+01 -1.1704723187645430e+02 0 0 0
2211 64 2 0.0000000000000000e+00 -6.1160189858533208e+01 -3.3530556298857327e+01 -1.1281188764274901e+02 0 0 0
1616 47 2 0.0000000000000000e+00 -2.4451087213833663e+01 -3.6691469229676571e+01 -1.1168629079414148e+02 0 0 0
2553 73 2 0.0000000000000000e+00 -1.5146055063253584e+02 -2.2430447279550322e+01 -1.2156373906121935e+02 0 0 0
2554 73 2 0.0000000000000000e+00 -1.4715672017008663e+02 -1.5888441649731233e+01 -1.1632580441414225e+02 0 0 0
6295 180 4 0.0000000000000000e+00 -1.3783870006341201e+02 -2.8148868220978461e+01 -1.2444591945888469e+02 0 0 0
6294 180 4 0.0000000000000000e+00 -1.3356409887823054e+02 -1.9438416604566925e+01 -1.2516420691223145e+02 0 0 0
4750 136 3 0.0000000000000000e+00 -1.0651354298362509e+02 -1.8234445745232357e+01 -1.1350291183876261e+02 0 0 0
4749 136 4 0.0000000000000000e+00 -1.0092571120191469e+02 -2.0650733893846933e+01 -1.2087901110366595e+02 0 0 0
6316 181 4 0.0000000000000000e+00 -8.3067020367316289e+01 -1.6932202406429020e+01 -1.1840629639791304e+02 0 0 0
6317 181 4 0.0000000000000000e+00 -7.4883189442784200e+01 -2.0333140224199823e+01 -1.1497205521796573e+02 0 0 0
6318 181 3 0.0000000000000000e+00 -6.8082544207027283e+01 -2.5914178063692233e+01 -1.2087101170570938e+02 0 0 0
6319 181 4 0.0000000000000000e+00 -5.8192527245572094e+01 -2.4090414229262326e+01 -1.2016052348445324e+02 0 0 0
6320 181 4 0.0000000000000000e+00 -5.0579555800481884e+01 -1.8291767734248044e+01 -1.2295056506281450e+02 0 0 0
1617 47 2 0.0000000000000000e+00 -2.6669494954706369e+01 -2.7506659156109585e+01 -1.1613405471912047e+02 0 0 0
5775 165 4 0.0000000000000000e+00 -3.5669696027737679e+01 -2.4083451027468708e+01 -1.1490858038595631e+02 0 0 0
1618 47 2 0.0000000000000000e+00 -2.6186486855106679e+01 -1.9252714672455571e+01 -1.2184211105640385e+02 0 0 0
6293 180 4 0.0000000000000000e+00 -1.3466197870424793e+02 -9.9857397322321670e+00 -1.2167162619467561e+02 0 0 0
6292 180 4 0.0000000000000000e+00 -1.3889446704974702e+02 -1.7189052618939085e+00 -1.1837977247626056e+02 0 0 0
2080 60 2 0.0000000000000000e+00 -9.0983623792715051e+01 -3.7943893445755879e+00 -1.1561098953582201e+02 0 0 0
6315 181 4 0.0000000000000000e+00 -8.8412092595235876e+01 -1.1991295355869473e+01 -1.2528007535487322e+02 0 0 0
6322 181 4 0.0000000000000000e+00 -5.1718788675761012e+01 -4.5376124761779151e+00 -1.1999927367863023e+02 0 0 0
6321 181 4 0.0000000000000000e+00 -4.5876026750178248e+01 -1.0329586314490497e+01 -1.2524100181806527e+02 0 0 0
2907 84 2 0.0000000000000000e+00 -4.1413890237101747e+01 -1.1618916330901753e+01 -1.1455712416056085e+02 0 0 0
2906 84 2 0.0000000000000000e+00 -3.4607791148006264e+01 -1.2211102301955679e+01 -1.2205444847928966e+02 0 0 0
3311 95 2 0.0000000000000000e+00 -1.1969295303389730e+02 -5.7823361417582868e-02 -1.1898731213165567e+02 0 0 0
3312 95 2 0.0000000000000000e+00 -1.1137541036839137e+02 4.4459579891577361e+00 -1.1634916404824278e+02 0 0 0
2079 60 2 0.0000000000000000e+00 -9.1756906410349472e+01 7.5744381487771761e-01 -1.2448271742012591e+02 0 0 0
3201 92 2 0.0000000000000000e+00 -7.8699961602388058e+01 9.6150337886516457e+00 -1.1438765766128039e+02 0 0 0
3202 92 2 0.0000000000000000e+00 -6.9794237846087441e+01 1.1920522204691730e+01 -1.1311606126404560e+02 0 0 0
3203 92 1 0.0000000000000000e+00 -6.0920345262269542e+01 9.3066807947859118e+00 -1.1231340987213943e+02 0 0 0
6323 181 4 0.0000000000000000e+00 -4.7963234807751256e+01 4.2965810933293547e+00 -1.2327127727884717e+02 0 0 0
5905 169 3 0.0000000000000000e+00 -9.8822288778737445e+01 2.5198996297184486e+01 -1.1889951678246254e+02 0 0 0
5904 169 4 0.0000000000000000e+00 -9.3672181442877033e+01 2.0419902423514507e+01 -1.1178075299921964e+02 0 0 0
3011 87 2 0.0000000000000000e+00 -6.2223594442461518e+01 2.2212285347431624e+01 -1.1943716120078373e+02 0 0 0
6184 177 4 0.0000000000000000e+00 -5.2438760474848578e+01 2.3486244013467019e+01 -1.1660537970123956e+02 0 0 0
1372 40 2 0.0000000000000000e+00 -9.0797849858852956e+01 -8.3590374494895201e+01 -1.0520614217241868e+02 0 0 0
1371 40 2 0.0000000000000000e+00 -9.0978010942032441e+01 -8.9915533195360481e+01 -9.7809948358577657e+01 0 0 0
2524 73 1 0.0000000000000000e+00 -1.2826494110555649e+02 -6.0229032318455680e+01 -1.0039719724128923e+02 0 0 0
6495 186 4 0.0000000000000000e+00 -1.0805414935263740e+02 -6.2895784357086200e+01 -9.8154640578025109e+01 0 0 0
6496 186 4 0.0000000000000000e+00 -1.0004286747192464e+02 -6.8177319886731567e+01 -9.9750723685403528e+01 0 0 0
6497 186 4 0.0000000000000000e+00 -9.0060691810525640e+01 -6.5567704301110084e+01 -9.7906863665571521e+01 0 0 0
6498 186 4 0.0000000000000000e+00 -8.3196844157326495e+01 -6.1357253551132303e+01 -1.0424604145304454e+02 0 0 0
1380 40 2 0.0000000000000000e+00 -6.5516505841176738e+01 -6.4383324887068994e+01 -1.1126630806652992e+02 0 0 0
1612 47 2 0.0000000000000000e+00 -3.8570160359843413e+01 -5.9705862910876220e+01 -1.0394414533946087e+02 0 0 0
2523 73 2 0.0000000000000000e+00 -1.3661825415165222e+02 -5.3739454726653229e+01 -1.0151339155900452e+02 0 0 0
2096 60 2 0.0000000000000000e+00 -9.3026935301606343e+01 -4.9055100829238548e+01 -9.9932756093236293e+01 0 0 0
2095 60 2 0.0000000000000000e+00 -8.6698785086949073e+01 -4.6582113899994368e+01 -1.0761912002784314e+02 0 0 0
1381 40 2 0.0000000000000000e+00 -6.5216052669879829e+01 -5.4985515781625168e+01 -1.0971435900812905e+02 0 0 0
1382 40 2 0.0000000000000000e+00 -6.6481203971602028e+01 -4.7510535148660182e+01 -1.0275524728830318e+02 0 0 0
1614 47 1 0.0000000000000000e+00 -2.6747023925762416e+01 -5.1858583816109331e+01 -9.9425098844440953e+01 0 0 0
1615 47 2 0.0000000000000000e+00 -2.5317526895609191e+01 -4.5417020315796634e+01 -1.0634060619895395e+02 0 0 0