LAMMPS (5 Jun 2019)
Reading restart file ...
  restart file = 5 Jun 2019, LAMMPS = 5 Jun 2019
  restoring atom style full from restart
  orthogonal box = (-500 -500 -500) to (500 500 500)
  1 by 2 by 7 MPI processor grid
  restoring pair style lj/cut from restart
  restoring bond style hybrid from restart
  restoring angle style cosine from restart
  7000 atoms
  7284 bonds
  6600 angles
Finding 1-2 1-3 1-4 neighbors ...
  special bond factors lj:   0          1          1         
  special bond factors coul: 0          0          0         
  3 = max # of 1-2 neighbors
  4 = max # of 1-3 neighbors
  8 = max # of 1-4 neighbors
  16 = max # of special neighbors
  special bonds CPU = 0.00121173 secs
  read_restart CPU = 0.0374605 secs
Changing box ...
  orthogonal box = (-500 -500 -500) to (500 500 500)
  orthogonal box = (-500 -500 -500) to (500 500 500)
  orthogonal box = (-500 -500 -500) to (500 500 500)
Finding 1-2 1-3 1-4 neighbors ...
  special bond factors lj:   0          1          1         
  special bond factors coul: 0          0          0         
  3 = max # of 1-2 neighbors
  4 = max # of 1-3 neighbors
  8 = max # of 1-4 neighbors
  17072 = # of 1-3 neighbors before angle trim
  13200 = # of 1-3 neighbors after angle trim
  16 = max # of special neighbors
  special bonds CPU = 0.00108166 secs
1000 atoms in group rxnSites
Neighbor list info ...
  update every 1 steps, delay 1 steps, check yes
  max neighbors/atom: 2000, page size: 100000
  master list distance cutoff = 26.9
  ghost atom cutoff = 26.9
  binsize = 13.45, bins = 75 75 75
  2 neighbor lists, perpetual/occasional/extra = 1 1 0
  (1) pair lj/cut, perpetual
      attributes: half, newton on
      pair build: half/bin/newton
      stencil: half/bin/3d/newton
      bin: standard
  (2) fix bond/create/random, occasional, copy from (1)
      attributes: half, newton on
      pair build: copy
      stencil: none
      bin: none
Setting up Verlet run ...
  Unit style    : real
  Current step  : 300000000
  Time step     : 30
Per MPI rank memory allocation (min/avg/max) = 10.34 | 10.75 | 11.7 Mbytes
Step E_pair PotEng KinEng E_bond E_angle Temp Bonds 
300000000   -1804.6994    34.220968    6462.0797   -2029.0024    3867.9227    309.74337     7284 
301000000   -1779.5398    -5.075505    6463.3764   -2075.5525    3850.0168    309.80552     7284 
302000000   -1772.5767   -38.718047    6506.5037    -2054.495    3788.3537    311.87272     7285 
303000000    -1772.139    9.4350402    6532.0929   -2118.0704    3899.6445    313.09927     7285 
304000000   -1780.7649   -46.894329    6560.7762   -2075.6099    3809.4804    314.47413     7285 
305000000   -1780.5962    34.347072    6396.1474   -2042.4773    3857.4206    306.58307     7285 
306000000   -1817.1636   -144.82649    6482.4192   -2058.5498    3730.8869    310.71829     7285 
307000000    -1776.972   -111.54657    6424.9981   -2149.5165    3814.9419    307.96596     7285 
308000000   -1810.0335    15.504982    6437.2786   -2058.4795     3884.018    308.55459     7286 
309000000      -1780.2   -2.8172295    6419.0499   -2050.3807    3827.7634    307.68084     7286 
310000000   -1783.7504   -45.547335    6417.1088   -2071.3789    3809.5819     307.5878     7286 
311000000   -1783.9406    36.290185    6550.7421   -2026.8873    3847.1181    313.99317     7286 
312000000   -1723.9419    49.670973    6450.8205   -2078.6127    3852.2255    309.20368     7286 
313000000   -1823.7176   -49.511784    6454.6771   -2079.7243    3853.9301    309.38854     7286 
314000000   -1836.5932   -75.376032    6562.3269   -2094.6835    3855.9006    314.54846     7286 
315000000   -1855.7019   -116.54071    6462.0449   -2102.8721    3842.0333     309.7417     7286 
316000000   -1852.8653   -153.60945    6383.7964    -2162.021    3861.2769    305.99106     7286 
317000000   -1788.4558   -69.412212    6515.5607   -2081.7634     3800.807    312.30684     7286 
318000000    -1790.825   -5.3630038    6482.8572   -2082.7963    3868.2583    310.73928     7286 
319000000   -1803.8978   -18.722688    6475.5672   -2049.3838    3834.5589    310.38986     7286 
320000000   -1773.3434    -55.52031    6463.6135   -2076.8338    3794.6568    309.81689     7286 
321000000   -1809.0827   -34.260165    6520.8927   -2060.2185    3835.0411    312.56242     7286 
322000000   -1772.8342   -4.4851201    6474.3524   -2065.1193    3833.4683    310.33163     7286 
323000000   -1796.3823   -38.186352    6442.9418   -2108.1882    3866.3842    308.82604     7286 
324000000      -1828.2   -45.510845    6549.2578    -2080.147    3862.8361    313.92203     7286 
325000000   -1809.0479   -73.910191    6427.9722   -2080.8229    3815.9606    308.10851     7286 
326000000   -1848.8505   -44.888654    6417.4789   -2067.3499    3871.3118    307.60554     7286 
327000000   -1766.0108   -102.97528    6594.5466   -2122.0967    3785.1322    316.09283     7286 
328000000   -1761.1473   -60.312419    6449.1084   -2111.1672    3812.0022    309.12162     7286 
329000000   -1757.7544   -25.913158    6444.0906   -2081.6628     3813.504    308.88111     7286 
330000000   -1796.2655    33.424363    6463.8953    -2042.841    3872.5308     309.8304     7286 
331000000   -1813.4514   -35.471276    6543.5158   -2044.4779     3822.458     313.6468     7285 
332000000   -1820.2732    -24.21523    6371.4394   -1986.3941    3782.4521    305.39876     7285 
333000000   -1783.5466    12.679769    6420.4071   -2123.8403    3920.0667     307.7459     7285 
334000000   -1788.8405   -27.706342    6430.8545   -2024.8908     3786.025    308.24667     7285 
335000000   -1795.2001   -30.782068    6455.7413   -2115.5608    3879.9788    309.43955     7285 
336000000   -1787.3058   -9.5973455    6378.6728   -2040.7815    3818.4899    305.74547     7285 
337000000   -1741.0083    93.568208    6369.0587   -2044.1465     3878.723    305.28464     7285 
338000000   -1722.2286    52.195811    6432.4798    -2044.074    3818.4984    308.32457     7284 
339000000   -1788.1075   -38.024824    6518.5729   -2101.9789    3852.0616    312.45123     7284 
340000000   -1778.6456    46.966701    6563.3795   -1981.1649    3806.7773    314.59891     7284 
341000000    -1769.398    101.58274    6550.7506    -1994.852    3865.8327    313.99358     7284 
342000000   -1737.6261    129.84639    6424.9576   -2011.7719    3879.2444    307.96401     7284 
343000000   -1775.9173   -33.730148    6512.6003   -2003.1048     3745.292    312.16494     7284 
344000000   -1748.6364   -5.9709764    6458.1171   -2045.8242    3788.4896    309.55343     7284 
345000000    -1773.626    44.700346    6351.1271   -2054.6342    3872.9605    304.42513     7284 
346000000   -1809.2708   -14.811485    6416.4544   -2110.4105    3904.8697    307.55643     7284 
347000000   -1804.4327    5.9322666    6618.1074   -2055.2622    3865.6272    317.22216     7284 
348000000    -1760.841    67.724592    6521.4211   -2038.2558    3866.8214    312.58775     7284 
349000000   -1772.2684    139.10995    6475.6125   -1948.6543    3860.0327    310.39203     7285 
350000000   -1814.6848   -35.364641    6484.5813   -2060.7708     3840.091    310.82192     7285 
351000000   -1755.4988    117.92082    6513.2672   -2014.4269    3887.8465    312.19691     7285 
352000000   -1786.4941   -20.861126    6525.9533   -2090.3341    3855.9671    312.80498     7285 
353000000   -1774.7108    -47.33881    6439.4343   -2090.5472    3817.9193    308.65792     7285 
354000000   -1718.7811    36.016971    6420.9611    -2092.999     3847.797    307.77245     7286 
355000000   -1784.2801    70.010401    6501.1264   -1996.0267    3850.3172    311.61497     7286 
356000000    -1803.192    35.308226    6596.3707   -2073.9328    3912.4331    316.18026     7286 
357000000    -1771.675   -125.77054    6500.4024   -2113.2987    3759.2031    311.58027     7285 
358000000   -1823.2053   -71.873256    6467.6883   -2114.5989    3865.9309     310.0122     7285 
359000000   -1769.7771    57.215294    6613.3378    -2049.884    3876.8764    316.99354     7285 
360000000    -1813.929   -14.350424    6485.9905   -2039.2766    3838.8551    310.88947     7284 
361000000   -1788.2113   -28.243375     6461.743   -2043.1626    3803.1306    309.72723     7285 
362000000   -1784.5566    119.24449    6466.2221   -1972.4837    3876.2847    309.94192     7284 
363000000    -1734.312    9.4846572    6398.4749   -2052.7053     3796.502    306.69463     7285 
364000000   -1750.0217    4.9263184    6507.6693   -2071.9985    3826.9465    311.92859     7284 
365000000   -1778.0974     89.13748    6396.6062   -2016.6466    3883.8815    306.60506     7286 
366000000   -1738.8916    80.108172     6601.436   -2068.3366    3887.3364    316.42305     7286 
367000000   -1797.9787    6.6900805    6430.3685   -2020.5713    3825.2401    308.22337     7286 
368000000   -1770.2195   -100.12159    6504.0594   -2135.1114    3805.2093    311.75555     7286 
369000000   -1752.0093    -4.654793    6516.5571    -2092.082    3839.4365     312.3546     7286 
370000000   -1774.8281    7.8291985     6495.845     -2048.26    3830.9173    311.36182     7286 
371000000   -1798.3485   -127.14195    6521.9992   -2149.8971    3821.1036    312.61546     7287 
372000000   -1875.3247   -147.96278    6461.4979   -2145.8941     3873.256    309.71548     7287 
373000000   -1745.4981   -19.458016    6378.4225   -2072.1646    3798.2047    305.73347     7286 
374000000   -1766.7469   -47.243668    6433.3636   -2115.2498     3834.753    308.36693     7287 
375000000   -1782.2855    -15.55211    6443.8213   -2022.5337    3789.2671     308.8682     7287 
376000000   -1795.7421   -33.477209    6607.5604   -2037.2502    3799.5151    316.71661     7287 
377000000   -1825.9596   -9.3353984    6474.0993   -2057.5271    3874.1512     310.3195     7287 
378000000   -1759.1832    10.405209    6548.3226   -2077.4856     3847.074     313.8772     7286 
379000000   -1766.8424   -19.662616    6542.5595   -2108.7861    3855.9659    313.60096     7286 
380000000    -1773.152    47.877695    6394.0851   -2013.1367    3834.1665    306.48422     7286 
381000000   -1786.6645    22.557852    6558.6875   -2071.0818    3880.3042    314.37401     7286 
382000000   -1802.5709    18.522284    6424.8968   -2083.9506    3905.0438     307.9611     7286 
383000000   -1765.8903    8.2815985    6432.2219   -2060.4629    3834.6349    308.31221     7286 
384000000   -1772.0723    18.392544    6494.4242   -2087.9359    3878.4007    311.29372     7286 
385000000   -1808.1344   -47.512117    6315.7678   -2080.9899    3841.6122    302.73028     7286 
386000000   -1734.0345   -87.263678    6433.6274   -2094.8286    3741.5994    308.37958     7286 
387000000    -1808.827   -2.9985961    6496.7654   -2053.7061    3859.5344    311.40594     7286 
388000000   -1731.6019    114.92567    6553.3335   -2072.5447    3919.0723    314.11739     7286 
389000000   -1751.4848    4.4561281    6414.1038   -2032.2147    3788.1556    307.44377     7286 
390000000   -1774.5816   -17.198927    6477.7944   -2112.2713     3869.654    310.49661     7286 
391000000   -1802.9642    -113.5055    6496.1003   -2127.6828    3817.1415    311.37406     7286 
392000000   -1758.3393    46.658746    6471.6817    -2009.307     3814.305    310.20362     7286 
393000000   -1737.2725    26.542174    6454.9779   -2062.0482    3825.8629    309.40296     7286 
394000000   -1742.2148    37.856882    6433.8112   -2073.4896    3853.5612    308.38839     7286 
395000000   -1802.3503   -95.861903    6476.5984   -2116.3008    3822.7892    310.43929     7286 
396000000   -1825.2169   -126.44349    6459.6152   -2125.3946    3824.1681    309.62524     7287 
397000000   -1776.4339   -93.099756    6608.8855   -2091.1793    3774.5134    316.78013     7287 
398000000   -1793.9595   -84.699315    6468.0588   -2099.0052    3808.2654    310.02996     7287 
399000000   -1742.4796    97.180442    6547.7026   -2047.2734    3886.9334    313.84748     7287 
400000000   -1734.6548    115.18291    6360.2439   -2071.4127    3921.2503    304.86213     7287 
Loop time of 19694.4 on 14 procs for 100000000 steps with 7000 atoms

Performance: 13161.099 ns/day, 0.002 hours/ns, 5077.584 timesteps/s
99.6% CPU use with 14 MPI tasks x no OpenMP threads

MPI task timing breakdown:
Section |  min time  |  avg time  |  max time  |%varavg| %total
---------------------------------------------------------------
Pair    | 4317       | 4951.2     | 5780.1     | 557.4 | 25.14
Bond    | 1176.3     | 1191.7     | 1229.8     |  37.7 |  6.05
Neigh   | 3865.4     | 3884.4     | 3930.3     |  30.3 | 19.72
Comm    | 4321.1     | 5242.8     | 6087.8     | 635.4 | 26.62
Output  | 0.5244     | 0.52465    | 0.5248     |   0.0 |  0.00
Modify  | 3673       | 3697.5     | 3731.3     |  25.4 | 18.77
Other   |            | 726.3      |            |       |  3.69

Nlocal:    500 ave 534 max 469 min
Histogram: 3 1 1 0 2 1 2 2 1 1
Nghost:    684.357 ave 912 max 422 min
Histogram: 1 1 1 2 1 0 4 2 1 1
Neighs:    6327.71 ave 7308 max 4852 min
Histogram: 1 0 0 2 1 4 0 3 0 3

Total # of neighbors = 88588
Ave neighs/atom = 12.6554
Ave special neighs/atom = 7.16829
Neighbor list builds = 6126221
Dangerous builds = 0
System init for write_restart ...
System init for write_data ...
Total wall time: 5:28:14
