LAMMPS (5 Jun 2019)
Reading restart file ...
  restart file = 5 Jun 2019, LAMMPS = 5 Jun 2019
  restoring atom style full from restart
  orthogonal box = (-500 -500 -500) to (500 500 500)
  1 by 2 by 7 MPI processor grid
  restoring pair style lj/cut from restart
  restoring bond style hybrid from restart
  restoring angle style cosine from restart
  7000 atoms
  7284 bonds
  6600 angles
Finding 1-2 1-3 1-4 neighbors ...
  special bond factors lj:   0          1          1         
  special bond factors coul: 0          0          0         
  3 = max # of 1-2 neighbors
  4 = max # of 1-3 neighbors
  8 = max # of 1-4 neighbors
  16 = max # of special neighbors
  special bonds CPU = 0.00128778 secs
  read_restart CPU = 0.00952239 secs
Changing box ...
  orthogonal box = (-500 -500 -500) to (500 500 500)
  orthogonal box = (-500 -500 -500) to (500 500 500)
  orthogonal box = (-500 -500 -500) to (500 500 500)
Finding 1-2 1-3 1-4 neighbors ...
  special bond factors lj:   0          1          1         
  special bond factors coul: 0          0          0         
  3 = max # of 1-2 neighbors
  4 = max # of 1-3 neighbors
  8 = max # of 1-4 neighbors
  17072 = # of 1-3 neighbors before angle trim
  13200 = # of 1-3 neighbors after angle trim
  16 = max # of special neighbors
  special bonds CPU = 0.00115586 secs
1000 atoms in group rxnSites
Neighbor list info ...
  update every 1 steps, delay 1 steps, check yes
  max neighbors/atom: 2000, page size: 100000
  master list distance cutoff = 26.9
  ghost atom cutoff = 26.9
  binsize = 13.45, bins = 75 75 75
  2 neighbor lists, perpetual/occasional/extra = 1 1 0
  (1) pair lj/cut, perpetual
      attributes: half, newton on
      pair build: half/bin/newton
      stencil: half/bin/3d/newton
      bin: standard
  (2) fix bond/create/random, occasional, copy from (1)
      attributes: half, newton on
      pair build: copy
      stencil: none
      bin: none
Setting up Verlet run ...
  Unit style    : real
  Current step  : 300000000
  Time step     : 30
Per MPI rank memory allocation (min/avg/max) = 10.34 | 10.75 | 11.7 Mbytes
Step E_pair PotEng KinEng E_bond E_angle Temp Bonds 
300000000   -1804.6994    34.220968    6462.0797   -2029.0024    3867.9227    309.74337     7284 
301000000   -1765.7118   -74.216272    6481.7333   -2104.9713    3796.4669    310.68541     7285 
302000000   -1718.1849    19.329539    6459.4821   -2024.7948    3762.3092    309.61886     7285 
303000000   -1782.6041   -47.669555    6568.2094   -2027.8715    3762.8061    314.83042     7284 
304000000   -1790.0251    24.151765    6415.8757   -2023.2025    3837.3794    307.52869     7284 
305000000   -1799.5513   -9.7782297    6454.9283    -2029.335     3819.108    309.40058     7284 
306000000   -1762.2967    40.583656    6389.0201   -2049.1143    3851.9947    306.24144     7284 
307000000   -1802.9708   -2.0555405    6448.0833   -2003.0156    3803.9309    309.07248     7285 
308000000   -1823.9973   -97.295946    6557.8815   -2119.4194    3846.1208    314.33538     7286 
309000000   -1765.0508    84.524768    6500.7738   -2023.7116    3873.2872    311.59807     7286 
310000000   -1824.8014   -126.92206    6494.3765   -2143.0968    3840.9762    311.29143     7286 
311000000   -1823.1328   -26.710588    6475.7125   -2054.5893    3851.0114    310.39682     7286 
312000000   -1795.9649   -21.504522    6427.0708   -2062.9146     3837.375     308.0653     7286 
313000000   -1772.6738    55.591613    6526.9321   -2058.4749    3886.7403     312.8519     7286 
314000000   -1811.7518    59.244859    6457.4644   -2040.4739    3911.4706    309.52214     7285 
315000000   -1807.8311    76.569216    6340.4222   -2009.1615    3893.5618    303.91202     7285 
316000000   -1799.5212     32.91687    6366.8946   -2029.4363    3861.8744    305.18091     7284 
317000000   -1789.0563    31.048281    6485.6365   -2036.5928    3856.6974     310.8725     7284 
318000000   -1734.2743    32.634362    6513.0573   -2036.8321    3803.7407    312.18685     7284 
319000000    -1762.604    142.08151    6545.6572   -1972.9881    3877.6736    313.74944     7284 
320000000   -1778.7714   -35.431059    6434.0638   -2088.5398    3831.8801     308.4005     7284 
321000000   -1770.2284   -34.810268    6422.1191   -2089.5037    3824.9218    307.82796     7284 
322000000   -1811.5744    46.962107     6362.462    -1979.391    3837.9275    304.96844     7284 
323000000   -1822.3405   -46.611435    6502.5949   -2064.1023    3839.8314    311.68536     7284 
324000000   -1818.6735    10.595352    6487.5427   -2061.7556    3891.0245    310.96387     7284 
325000000   -1748.6683   -66.678887    6542.9519   -2099.2818    3781.2712    313.61977     7283 
326000000   -1746.0313    28.032891    6464.7245   -2080.1197    3854.1839    309.87014     7284 
327000000   -1728.5791    104.85956    6359.1148   -2004.3642    3837.8028      304.808     7284 
328000000   -1770.1744    70.436569    6510.8406   -2045.8215    3886.4325     312.0806     7284 
329000000   -1816.9527   -68.019885    6439.8241   -2086.6916    3835.6244     308.6766     7283 
330000000   -1786.6326   -3.4296173    6498.2319   -2089.7736    3872.9766    311.47623     7285 
331000000   -1813.0653   -14.741152     6444.727   -2076.3049     3874.629    308.91161     7285 
332000000   -1774.9324   -35.536856    6474.2461   -2094.2944      3833.69    310.32653     7285 
333000000   -1820.8475   -68.422564    6451.3456   -2040.0358    3792.4607    309.22886     7285 
334000000   -1774.3999   -101.30815    6525.9696   -2145.8928    3818.9846    312.80577     7285 
335000000   -1804.8672   -42.663006    6490.3667   -2121.9153    3884.1194    311.09923     7285 
336000000   -1776.7235     48.49171    6427.2563   -2072.8114    3898.0265     308.0742     7285 
337000000   -1791.3572   -29.723943    6505.6725    -2057.126    3818.7593    311.83288     7285 
338000000   -1802.6334   -59.041454    6455.0526   -2083.8228    3827.4148    309.40654     7285 
339000000   -1797.7516   -83.302204    6561.7507   -2064.4126     3778.862    314.52084     7285 
340000000   -1774.2858    32.720771    6459.1102   -2027.5786    3834.5851    309.60103     7285 
341000000   -1784.9978   -66.118549    6471.3736   -2072.9241    3791.8034    310.18885     7285 
342000000   -1815.3307   -62.239504    6429.2972   -2070.9978     3824.089    308.17202     7285 
343000000   -1788.6947    -46.50178    6435.6779     -2064.65    3806.8429    308.47786     7285 
344000000   -1755.8821    25.421149    6444.2042   -2028.9713    3810.2746    308.88655     7285 
345000000    -1762.527    15.181915    6439.9021   -2035.5591     3813.268    308.68034     7285 
346000000   -1782.1264   -5.9001918    6385.1533   -2075.9404    3852.1666     306.0561     7285 
347000000   -1765.0809    11.475061    6382.6396   -2066.7821     3843.338    305.93561     7286 
348000000   -1757.3793    14.374139    6403.4002   -2095.1427    3866.8961    306.93071     7286 
349000000   -1790.1213   -30.252863    6479.3632    -2052.895    3812.7634    310.57181     7286 
350000000   -1819.6062   -113.96715    6451.8909   -2104.8331    3810.4721    309.25499     7287 
351000000   -1860.4196   -99.045246    6555.2657   -2098.7877     3860.162       314.21     7286 
352000000   -1793.5988   -3.0176422    6378.4695   -2090.6592    3881.2404    305.73572     7287 
353000000   -1803.3135   -30.770561    6447.1475   -2075.7103    3848.2532    309.02763     7287 
354000000   -1769.6041   -27.959177    6318.4346   -2076.6963    3818.3412    302.85811     7287 
355000000   -1730.0402    46.640554    6523.2744     -2069.29    3845.9708    312.67658     7287 
356000000   -1819.1319   -51.349012    6522.8602   -2065.3913    3833.1741    312.65672     7287 
357000000   -1801.7893   -28.071808    6472.0523   -2059.0177    3832.7351    310.22138     7287 
358000000   -1763.6895    34.202493    6425.3169   -2053.3701    3851.2621    307.98124     7287 
359000000   -1782.6649    -38.82122    6498.8066   -2083.1703     3827.014    311.50378     7287 
360000000   -1811.8688  -0.83303072    6465.8495   -2063.1463    3874.1821    309.92406     7287 
361000000   -1741.2159    164.18201    6489.6255   -1967.8244    3873.2224    311.06371     7287 
362000000   -1776.5782    86.034805     6497.866   -2055.3845    3917.9975    311.45869     7287 
363000000   -1761.2389    -14.06476    6422.3262   -2094.9504    3842.1245    307.83788     7287 
364000000   -1784.7519   -13.339737    6442.5137   -2106.6233    3878.0355    308.80552     7287 
365000000   -1799.3221    69.741563    6497.2354   -2023.7298    3892.7935    311.42847     7287 
366000000   -1756.4511    34.003924    6576.1176   -2043.7487    3834.2037    315.20949     7287 
367000000   -1765.7805   -48.429879    6411.6396   -2110.5599    3827.9105    307.32565     7287 
368000000   -1785.3225    50.029012    6469.8125   -2055.5096    3890.8611    310.11402     7287 
369000000   -1840.8669   -134.56142      6508.37   -2077.3379    3783.6434    311.96217     7287 
370000000   -1805.5438   -18.238892    6509.1864   -2031.3671     3818.672    312.00131     7287 
371000000   -1828.6955   -73.693223    6397.2317   -2071.2763    3826.2786    306.63504     7287 
372000000   -1752.8044   -52.658281    6524.7681    -2067.764    3767.9101    312.74817     7287 
373000000   -1805.8263   -73.794151    6539.7096   -2099.7473    3831.7794    313.46436     7287 
374000000   -1773.1667   -68.189518    6410.1248     -2097.55    3802.5271    307.25304     7287 
375000000   -1771.4886     10.74541    6445.6454   -2084.0326    3866.2666    308.95563     7287 
376000000   -1807.1446   -62.252596     6459.204   -2091.3917    3836.2837    309.60553     7287 
377000000   -1780.1199    27.297496    6518.4739    -2068.217    3875.6344    312.44648     7287 
378000000   -1788.9279    27.074497     6273.996   -2083.4809    3899.4832    300.72805     7287 
379000000   -1754.8884   -104.40666    6379.9066    -2094.593    3745.0748    305.80461     7287 
380000000   -1802.7234   -43.085591    6445.1876    -2114.908    3874.5459    308.93369     7287 
381000000   -1807.1809     15.97148    6536.2076     -2060.38    3883.5323     313.2965     7287 
382000000   -1819.5436   -105.57503    6493.7063   -2033.1763    3747.1448    311.25931     7286 
383000000   -1839.8252   -187.23914    6507.0534   -2112.1925    3764.7786    311.89907     7286 
384000000    -1752.123    90.991075    6543.0392   -1994.7157    3837.8298    313.62395     7286 
385000000   -1845.3802   -72.207739     6432.451   -2100.0352    3873.2077    308.32319     7286 
386000000   -1798.0476   -28.134677    6443.9357   -2053.0552    3822.9682    308.87368     7286 
387000000   -1777.6255   -6.8711634     6463.862   -2030.3917    3801.1461     309.8288     7285 
388000000    -1793.501     58.45203    6398.1492   -2015.8953    3867.8484    306.67902     7285 
389000000   -1751.7118   -23.921782    6399.0394   -2045.2571    3773.0471    306.72169     7285 
390000000   -1774.5829    45.598781    6444.6663   -2031.9589    3852.1405     308.9087     7285 
391000000   -1814.9046   -25.333916    6374.3385   -2065.1817    3854.7523    305.53771     7286 
392000000   -1748.6357    96.377642    6415.8394   -2002.4313    3847.4446    307.52696     7286 
393000000   -1781.1807    7.5294563     6397.775   -2069.2229    3857.9331    306.66109     7286 
394000000   -1804.3976   -23.310102     6427.838   -2074.2963    3855.3838    308.10208     7286 
395000000   -1778.7387    64.556847    6419.7656   -2046.5649    3889.8604    307.71515     7286 
396000000   -1763.3043    5.9217957    6396.7657   -2108.7204    3877.9465    306.61271     7285 
397000000   -1791.2533      39.4566    6401.2176   -2039.4871     3870.197     306.8261     7285 
398000000   -1775.9836    52.298054    6492.7057   -2030.9357    3859.2174    311.21135     7285 
399000000   -1750.9932    19.112988    6468.0655   -2079.5072    3849.6133    310.03028     7285 
400000000   -1810.9829    60.396117     6505.728   -2064.1759     3935.555    311.83554     7285 
Loop time of 19410.2 on 14 procs for 100000000 steps with 7000 atoms

Performance: 13353.770 ns/day, 0.002 hours/ns, 5151.917 timesteps/s
99.6% CPU use with 14 MPI tasks x no OpenMP threads

MPI task timing breakdown:
Section |  min time  |  avg time  |  max time  |%varavg| %total
---------------------------------------------------------------
Pair    | 3937.8     | 4498.4     | 5116.1     | 550.4 | 23.18
Bond    | 1059.7     | 1076.7     | 1096       |  35.8 |  5.55
Neigh   | 3521.1     | 3542.3     | 3591       |  33.8 | 18.25
Comm    | 5141.9     | 5831.6     | 6732.9     | 588.1 | 30.04
Output  | 0.38224    | 0.38229    | 0.38248    |   0.0 |  0.00
Modify  | 3624.1     | 3651.2     | 3673       |  20.2 | 18.81
Other   |            | 809.6      |            |       |  4.17

Nlocal:    500 ave 524 max 464 min
Histogram: 1 0 0 1 2 2 3 3 0 2
Nghost:    697.571 ave 1002 max 469 min
Histogram: 2 2 3 0 1 1 2 2 0 1
Neighs:    6541 ave 7511 max 5707 min
Histogram: 1 2 3 1 0 1 2 3 0 1

Total # of neighbors = 91574
Ave neighs/atom = 13.082
Ave special neighs/atom = 7.186
Neighbor list builds = 6126277
Dangerous builds = 0
System init for write_restart ...
System init for write_data ...
Total wall time: 5:23:30
