LAMMPS (5 Jun 2019)
Reading restart file ...
  restart file = 5 Jun 2019, LAMMPS = 5 Jun 2019
  restoring atom style full from restart
  orthogonal box = (-500 -500 -500) to (500 500 500)
  1 by 2 by 7 MPI processor grid
  restoring pair style lj/cut from restart
  restoring bond style hybrid from restart
  restoring angle style cosine from restart
  7000 atoms
  7284 bonds
  6600 angles
Finding 1-2 1-3 1-4 neighbors ...
  special bond factors lj:   0          1          1         
  special bond factors coul: 0          0          0         
  3 = max # of 1-2 neighbors
  4 = max # of 1-3 neighbors
  8 = max # of 1-4 neighbors
  16 = max # of special neighbors
  special bonds CPU = 0.00130946 secs
  read_restart CPU = 0.009584 secs
Changing box ...
  orthogonal box = (-500 -500 -500) to (500 500 500)
  orthogonal box = (-500 -500 -500) to (500 500 500)
  orthogonal box = (-500 -500 -500) to (500 500 500)
Finding 1-2 1-3 1-4 neighbors ...
  special bond factors lj:   0          1          1         
  special bond factors coul: 0          0          0         
  3 = max # of 1-2 neighbors
  4 = max # of 1-3 neighbors
  8 = max # of 1-4 neighbors
  17072 = # of 1-3 neighbors before angle trim
  13200 = # of 1-3 neighbors after angle trim
  16 = max # of special neighbors
  special bonds CPU = 0.00117292 secs
1000 atoms in group rxnSites
Neighbor list info ...
  update every 1 steps, delay 1 steps, check yes
  max neighbors/atom: 2000, page size: 100000
  master list distance cutoff = 26.9
  ghost atom cutoff = 26.9
  binsize = 13.45, bins = 75 75 75
  2 neighbor lists, perpetual/occasional/extra = 1 1 0
  (1) pair lj/cut, perpetual
      attributes: half, newton on
      pair build: half/bin/newton
      stencil: half/bin/3d/newton
      bin: standard
  (2) fix bond/create/random, occasional, copy from (1)
      attributes: half, newton on
      pair build: copy
      stencil: none
      bin: none
Setting up Verlet run ...
  Unit style    : real
  Current step  : 300000000
  Time step     : 30
Per MPI rank memory allocation (min/avg/max) = 10.34 | 10.75 | 11.7 Mbytes
Step E_pair PotEng KinEng E_bond E_angle Temp Bonds 
300000000   -1804.6994    34.220968    6462.0797   -2029.0024    3867.9227    309.74337     7284 
301000000   -1747.5224    112.11874    6413.2062   -1963.4438    3823.0849    307.40074     7284 
302000000   -1792.6042   -50.608954    6539.8625   -2048.0515    3790.0467    313.47169     7285 
303000000   -1797.2444   -117.57702    6480.9609   -2110.8393    3790.5066    310.64839     7285 
304000000   -1752.6874    75.734249    6396.7406   -2041.0187    3869.4404     306.6115     7285 
305000000   -1799.6143   -13.080163    6480.5805   -2047.6411    3834.1753    310.63016     7285 
306000000   -1740.6084   -8.5178019    6421.1635   -2141.0215    3873.1121    307.78215     7285 
307000000   -1781.9481   -16.336648    6483.9454   -2022.1451    3787.7566    310.79144     7285 
308000000    -1815.149   -50.102766    6575.4832   -2032.7071    3797.7534    315.17908     7285 
309000000   -1722.8287    97.842209    6549.3722   -2058.1276    3878.7985    313.92751     7285 
310000000   -1800.2909    7.7089957    6397.8977   -2134.7153    3942.7152    306.66697     7285 
311000000   -1773.3376    52.333677    6459.9966   -2045.1044    3870.7757    309.64352     7285 
312000000   -1848.2467   -65.750293    6445.4051   -2072.3394    3854.8358    308.94411     7285 
313000000   -1824.9749   -73.104869    6449.7277    -2070.698    3822.5681    309.15131     7285 
314000000   -1806.2269     34.66271    6613.6269   -2005.7197    3846.6093     317.0074     7285 
315000000   -1813.3662   -63.014325    6389.4603   -2039.8749    3790.2267    306.26254     7285 
316000000   -1795.2007    -151.2781    6497.2062   -2089.9286    3733.8512    311.42707     7285 
317000000   -1798.0938   -67.129751    6367.8557   -2026.5162    3757.4802    305.22698     7285 
318000000   -1750.1942   -6.8113608    6505.4326   -2025.6067    3768.9895    311.82138     7285 
319000000   -1708.9365    132.61147    6498.7904     -2013.82     3855.368      311.503     7285 
320000000   -1752.6019   -45.423654    6523.8214   -2088.1808    3795.3591     312.7028     7285 
321000000   -1768.3758    13.013164    6452.0461   -2020.7484    3802.1374    309.26243     7285 
322000000   -1753.7316    73.049916    6482.9849   -2010.4056    3837.1872    310.74541     7285 
323000000    -1805.457   -44.676373    6488.2128   -2091.6603    3852.4409    310.99599     7285 
324000000   -1814.5033    9.1580692    6494.5037   -2037.9252    3861.5865    311.29753     7285 
325000000   -1831.9139   -7.7073946    6277.1011   -2033.5229    3857.7294    300.87689     7285 
326000000   -1777.2295     24.54474    6538.8294   -2062.4197    3864.1939    313.42217     7285 
327000000   -1842.2552    38.453933    6501.7123   -2020.3591    3901.0683    311.64305     7285 
328000000   -1819.1445    5.2324814    6577.1152   -2021.5752    3845.9522     315.2573     7285 
329000000   -1796.6314  -0.60018233    6502.5002   -2084.5511    3880.5823    311.68082     7285 
330000000   -1722.0812    64.449243    6494.4503    -2039.316    3825.8465    311.29497     7285 
331000000   -1771.0959    9.6825776    6606.9248   -2059.7702    3840.5487    316.68615     7285 
332000000   -1746.4639    117.33813    6466.8696   -1989.8171    3853.6192    309.97296     7285 
333000000   -1777.7936    86.433231    6433.9769   -2011.9167    3876.1435    308.39633     7285 
334000000   -1793.2902   -106.43523     6460.124   -2093.7951      3780.65    309.64963     7285 
335000000   -1762.2399    38.915882     6504.508   -2030.3744    3831.5302    311.77706     7285 
336000000   -1764.6871    37.009415    6477.6372   -2042.1502    3843.8467    310.48908     7285 
337000000   -1754.8163    52.385145    6463.1622   -2084.0712    3891.2726    309.79525     7285 
338000000   -1762.5065     107.0067    6574.6428   -2005.5673    3875.0804    315.13879     7285 
339000000    -1726.767   -24.466062    6355.4999   -2116.1734    3818.4744    304.63474     7285 
340000000   -1786.5954   -46.907437    6349.1084   -2070.9653    3810.6533    304.32838     7285 
341000000   -1732.3874    31.477451    6489.3317   -2048.0453    3811.9102    311.04962     7285 
342000000   -1783.0445    10.907895    6456.5618   -2077.4643    3871.4167    309.47888     7285 
343000000   -1751.4911     35.70833    6563.7704   -1985.5038    3772.7032    314.61765     7285 
344000000   -1771.5514   -40.687604    6496.4425   -2046.8305    3777.6943    311.39046     7285 
345000000    -1762.027   -15.372567    6500.6698   -2049.1554    3795.8098    311.59308     7285 
346000000   -1832.3049   -81.494478    6425.3501   -2078.8549    3829.6654    307.98283     7285 
347000000   -1800.1301   -75.436927    6456.9239   -2119.1816    3843.8748    309.49623     7285 
348000000   -1764.5652   -20.854055    6453.1687   -2075.6905    3819.4017    309.31624     7285 
349000000   -1797.4961    48.363093    6442.6696   -2049.2269    3895.0861    308.81299     7285 
350000000   -1756.0331    19.765066    6481.7957   -2053.5181    3829.3163     310.6884     7285 
351000000   -1812.8538   -121.82615    6455.2931   -2074.9285    3765.9561    309.41807     7285 
352000000   -1796.5679   -87.526428    6405.6565   -2074.5562    3783.5977    307.03886     7285 
353000000    -1776.531   -16.703887    6510.2699   -2063.0622    3822.8892    312.05324     7285 
354000000   -1788.4173    25.043944    6329.8855   -2053.5729    3867.0341    303.40698     7285 
355000000   -1693.1682    99.698314    6599.1248   -2037.1529    3830.0194    316.31228     7285 
356000000   -1828.1912   -82.766778    6488.1669   -2065.3078    3810.7323    310.99379     7285 
357000000    -1805.188    53.609935    6511.8491   -1988.6728    3847.4707    312.12894     7285 
358000000    -1793.531    12.678803    6432.2158   -2051.4095    3857.6193    308.31192     7285 
359000000   -1721.3296    29.664205    6479.6306   -2096.2219    3847.2157    310.58462     7285 
360000000   -1766.7834    14.223989    6505.5191   -2030.6961    3811.7034    311.82552     7285 
361000000   -1809.0461    40.810506    6422.6061   -1997.2364     3847.093     307.8513     7283 
362000000   -1735.3847    44.375703     6504.442    -2022.862    3802.6224     311.7739     7284 
363000000    -1797.085   -92.765877    6580.7019   -2029.2341    3733.5532    315.42922     7284 
364000000   -1736.2691    22.313471    6435.4069   -2076.4027    3834.9852    308.46487     7284 
365000000   -1727.5517    39.841411    6533.0739   -2038.0234    3805.4166    313.14629     7284 
366000000   -1774.8426    -43.32515    6364.2356   -2062.3335    3793.8509    305.05346     7284 
367000000   -1754.9076    46.875194    6492.0744   -2003.7276    3805.5104    311.18109     7283 
368000000    -1834.334   -121.13918     6335.069   -2103.7561     3816.951    303.65543     7285 
369000000   -1773.2821    21.550353    6547.3664   -2030.9841    3825.8166    313.83137     7285 
370000000   -1736.0443   -76.584782    6445.6699   -2098.2929    3757.7524     308.9568     7285 
371000000   -1789.9075   -82.230876    6552.8356   -2032.2231    3739.8997    314.09352     7284 
372000000    -1742.863    82.389275    6473.5669   -2004.5994    3829.8516    310.29398     7283 
373000000    -1790.764    56.024845    6418.1027   -2002.3368    3849.1256    307.63544     7283 
374000000    -1746.363    16.701314    6524.2122   -2048.6239    3811.6883    312.72153     7283 
375000000   -1764.4632    110.37921    6426.3277   -1997.0053    3871.8477    308.02968     7283 
376000000   -1797.9607   -24.016297    6452.1354   -2029.7261    3803.6705    309.26671     7283 
377000000   -1791.9018    111.28585    6448.6198   -2004.5401    3907.7278     309.0982     7283 
378000000   -1766.4786    16.449693    6445.4994   -2023.8202    3806.7485    308.94863     7283 
379000000   -1811.7725   -74.626081     6574.209   -2086.3628    3823.5092      315.118     7283 
380000000   -1779.2603   -25.310778    6465.4299   -2040.4975    3794.4471    309.90395     7283 
381000000   -1761.6829    89.967572    6423.6181   -2019.1577    3870.8081    307.89981     7283 
382000000   -1780.0169   -20.517339    6577.4581    -2073.093    3832.5926    315.27374     7283 
383000000   -1719.6237    99.406307    6465.1849   -1968.7774    3787.8074     309.8922     7283 
384000000   -1763.6311    134.64364    6466.0391   -2017.2197    3915.4944    309.93315     7283 
385000000   -1767.2418    70.499242     6565.782   -2069.0807    3906.8217    314.71408     7283 
386000000   -1755.9363    -63.95666     6550.584   -2124.9832    3816.9629     313.9856     7285 
387000000   -1772.6352   -31.192294    6450.1551    -2081.723    3823.1659    309.17179     7285 
388000000    -1779.215   -78.868449     6519.696   -2112.1775    3812.5241    312.50506     7285 
389000000   -1738.5279    69.146868    6455.0168   -2012.5539    3820.2287    309.40482     7285 
390000000   -1794.4566   -53.322921    6426.8338   -2061.2787    3802.4124    308.05395     7285 
391000000   -1853.0652   -98.683592    6477.2418   -2142.4251    3896.8068    310.47012     7286 
392000000   -1795.4811   -84.620606    6440.7084   -2071.3459    3782.2064    308.71899     7286 
393000000   -1756.8644   -96.583314    6459.2856   -2138.9319     3799.213    309.60944     7286 
394000000   -1803.7193   -18.218776    6540.9983    -2058.186    3843.6865    313.52613     7286 
395000000    -1761.879    97.414792    6433.2621   -2014.2683    3873.5621    308.36207     7286 
396000000   -1802.2808   -34.675273    6542.6503   -2096.4705    3864.0761    313.60531     7286 
397000000   -1824.0147    35.284388    6445.4266   -2017.1509      3876.45    308.94514     7286 
398000000   -1805.1488    42.917622    6472.1019   -2025.9804    3874.0469    310.22376     7286 
399000000   -1800.6383   -111.77664    6464.3109   -2076.4247    3765.2864    309.85031     7286 
400000000   -1809.3396   -53.435241    6497.2356   -2027.7701    3783.6745    311.42848     7286 
Loop time of 19489.1 on 14 procs for 100000000 steps with 7000 atoms

Performance: 13299.736 ns/day, 0.002 hours/ns, 5131.071 timesteps/s
99.6% CPU use with 14 MPI tasks x no OpenMP threads

MPI task timing breakdown:
Section |  min time  |  avg time  |  max time  |%varavg| %total
---------------------------------------------------------------
Pair    | 3918.9     | 4483.2     | 5381.9     | 575.2 | 23.00
Bond    | 1058.4     | 1076.6     | 1094.6     |  35.9 |  5.52
Neigh   | 3499.7     | 3526.5     | 3571.9     |  36.4 | 18.09
Comm    | 4908.5     | 5920.5     | 6826.3     | 621.3 | 30.38
Output  | 0.39034    | 0.39041    | 0.3905     |   0.0 |  0.00
Modify  | 3633.1     | 3662.1     | 3717.7     |  30.1 | 18.79
Other   |            | 819.8      |            |       |  4.21

Nlocal:    500 ave 547 max 466 min
Histogram: 2 0 1 5 1 3 1 0 0 1
Nghost:    697.643 ave 937 max 518 min
Histogram: 3 1 3 1 0 2 0 2 0 2
Neighs:    6568.43 ave 7617 max 5226 min
Histogram: 1 0 0 1 1 5 3 2 0 1

Total # of neighbors = 91958
Ave neighs/atom = 13.1369
Ave special neighs/atom = 7.19714
Neighbor list builds = 6126254
Dangerous builds = 0
System init for write_restart ...
System init for write_data ...
Total wall time: 5:24:49
