LAMMPS (5 Jun 2019)
Reading restart file ...
  restart file = 5 Jun 2019, LAMMPS = 5 Jun 2019
  restoring atom style full from restart
  orthogonal box = (-500 -500 -500) to (500 500 500)
  1 by 2 by 7 MPI processor grid
  restoring pair style lj/cut from restart
  restoring bond style hybrid from restart
  restoring angle style cosine from restart
  7000 atoms
  7284 bonds
  6600 angles
Finding 1-2 1-3 1-4 neighbors ...
  special bond factors lj:   0          1          1         
  special bond factors coul: 0          0          0         
  3 = max # of 1-2 neighbors
  4 = max # of 1-3 neighbors
  8 = max # of 1-4 neighbors
  16 = max # of special neighbors
  special bonds CPU = 0.0199163 secs
  read_restart CPU = 0.30609 secs
Changing box ...
  orthogonal box = (-500 -500 -500) to (500 500 500)
  orthogonal box = (-500 -500 -500) to (500 500 500)
  orthogonal box = (-500 -500 -500) to (500 500 500)
Finding 1-2 1-3 1-4 neighbors ...
  special bond factors lj:   0          1          1         
  special bond factors coul: 0          0          0         
  3 = max # of 1-2 neighbors
  4 = max # of 1-3 neighbors
  8 = max # of 1-4 neighbors
  17072 = # of 1-3 neighbors before angle trim
  13200 = # of 1-3 neighbors after angle trim
  16 = max # of special neighbors
  special bonds CPU = 0.00160998 secs
1000 atoms in group rxnSites
Neighbor list info ...
  update every 1 steps, delay 1 steps, check yes
  max neighbors/atom: 2000, page size: 100000
  master list distance cutoff = 26.9
  ghost atom cutoff = 26.9
  binsize = 13.45, bins = 75 75 75
  2 neighbor lists, perpetual/occasional/extra = 1 1 0
  (1) pair lj/cut, perpetual
      attributes: half, newton on
      pair build: half/bin/newton
      stencil: half/bin/3d/newton
      bin: standard
  (2) fix bond/create/random, occasional, copy from (1)
      attributes: half, newton on
      pair build: copy
      stencil: none
      bin: none
Setting up Verlet run ...
  Unit style    : real
  Current step  : 300000000
  Time step     : 30
Per MPI rank memory allocation (min/avg/max) = 10.34 | 10.75 | 11.7 Mbytes
Step E_pair PotEng KinEng E_bond E_angle Temp Bonds 
300000000   -1804.6994    34.220968    6462.0797   -2029.0024    3867.9227    309.74337     7284 
301000000   -1774.7464    28.656882    6467.6078   -1957.3005    3760.7039    310.00834     7284 
302000000   -1753.5137   -15.391524    6529.7985   -2036.5415    3774.6637    312.98929     7285 
303000000   -1816.4241    17.806407    6523.8247   -2037.4067    3871.6372    312.70296     7285 
304000000   -1795.2562    -81.40558    6451.4726   -2095.9628    3809.8134    309.23494     7285 
305000000   -1811.8184   -3.8717387    6467.6923   -2060.1986    3868.1452    310.01239     7285 
306000000   -1810.0976    -55.82076    6333.1021   -2057.3947    3811.6715    303.56115     7285 
307000000   -1855.2877   -63.220849    6500.0141   -2056.5528    3848.6197    311.56165     7285 
308000000    -1791.283   -96.135662    6539.5255   -2090.0798    3785.2272    313.45553     7285 
309000000   -1768.1022   -7.0973172    6474.4737   -2048.7096    3809.7144    310.33744     7285 
310000000    -1770.183     77.06671    6560.4567   -2054.6383    3901.8879    314.45882     7285 
311000000   -1797.0986   -14.616906    6361.7929   -2047.9255    3830.4071    304.93637     7285 
312000000   -1797.4012   -49.111498    6521.5581   -2065.3698    3813.6595    312.59431     7285 
313000000   -1789.1641    115.35399    6454.6755   -2012.2362    3916.7543    309.38846     7285 
314000000   -1796.8102     60.18629    6549.5003   -2005.8341    3862.8306    313.93365     7285 
315000000   -1766.5791   -51.094331    6525.3858   -2095.1629    3810.6477    312.77778     7285 
316000000   -1765.1144    44.775751    6503.6578   -2038.3901    3848.2802    311.73631     7285 
317000000   -1798.1061    28.250966    6424.4407   -2024.1354    3850.4925    307.93924     7285 
318000000   -1811.7023   -11.190321    6433.1598   -2052.0385    3852.5505    308.35716     7285 
319000000   -1778.8439     -9.45047    6426.7471    -2075.589    3844.9825    308.04979     7285 
320000000   -1784.2178   -26.458794    6481.1088   -2029.2711    3787.0301    310.65548     7285 
321000000   -1755.1602    85.000218    6454.1783   -2019.7035    3859.8639    309.36463     7285 
322000000   -1760.9475    28.091686    6444.6364   -2005.4785    3794.5177    308.90727     7285 
323000000   -1769.4726   -29.981205    6534.5262   -2035.3464    3774.8378     313.2159     7285 
324000000    -1739.289    1.6676321    6513.1184   -2054.3201    3795.2767    312.18978     7285 
325000000   -1799.6462    20.670197    6486.9321   -2038.7581    3859.0745    310.93461     7285 
326000000   -1762.1893    29.150163    6489.5458   -2024.6114    3815.9509    311.05988     7285 
327000000   -1841.2379    27.931663    6458.6802   -1970.6086    3839.7781    309.58042     7285 
328000000    -1799.721    2.6818324    6540.1754    -2015.867    3818.2698    313.48669     7285 
329000000    -1796.527   -30.196018     6400.688   -2042.3266    3808.6576    306.80071     7285 
330000000   -1756.6765    59.652127    6345.1099   -2040.2243     3856.553    304.13672     7285 
331000000   -1781.5262   -62.109384    6500.9987    -2106.297    3825.7137    311.60885     7285 
332000000   -1776.5603    2.7618634    6452.4043   -2084.8401    3864.1622     309.2796     7285 
333000000   -1779.4946   -116.38643     6407.016   -2040.0903    3703.1984    307.10403     7285 
334000000   -1776.6443   -31.235282     6488.809   -2095.3079    3840.7169    311.02457     7285 
335000000   -1793.6686     55.68126    6504.9425   -2033.1551     3882.505    311.79789     7285 
336000000   -1815.5309    20.525627     6356.141   -2046.1152    3882.1717    304.66547     7285 
337000000   -1783.4178    26.183355    6529.5462    -2060.706    3870.3071     312.9772     7285 
338000000   -1814.4633    -54.16085    6472.7985    -2054.875    3815.1775    310.25714     7285 
339000000   -1809.1913    1.3207152    6480.7867   -2064.6255    3875.1374    310.64004     7284 
340000000   -1779.7188    35.132498    6448.9654   -2040.1056    3854.9568    309.11477     7284 
341000000   -1755.9227    32.355021     6452.236   -2043.6209    3831.8986    309.27153     7285 
342000000   -1755.2291    73.900303    6521.4494   -2039.4522    3868.5816     312.5891     7285 
343000000   -1794.5862   -5.1967051    6431.7643   -2031.4345    3820.8239    308.29028     7285 
344000000   -1811.4751   -2.2023387    6408.0633   -2082.0453    3891.3181    307.15423     7285 
345000000   -1795.9508    3.4064677    6524.6845   -2063.7522    3863.1095    312.74417     7285 
346000000   -1740.1157    24.138792    6441.0185   -2042.5497    3806.8043    308.73385     7285 
347000000   -1741.7942   -29.623848    6444.5589   -2122.0896    3834.2599    308.90355     7285 
348000000   -1804.6595   -31.866712    6460.7701   -2066.6154    3839.4082    309.68059     7285 
349000000   -1811.4645    -65.75205    6425.6906   -2097.3624    3843.0749    307.99915     7285 
350000000   -1793.7328    20.619834    6481.8346   -2031.8874    3846.2399    310.69027     7285 
351000000   -1814.2417   -24.435396    6505.8523   -2044.6863    3834.4927    311.84149     7285 
352000000   -1737.6047    60.973173    6354.3716    -2068.754    3867.3318    304.58065     7285 
353000000   -1789.8172    49.282762    6328.7881   -2027.3936    3866.4936    303.35437     7285 
354000000    -1816.605   -27.379775    6575.2847   -2100.6152    3889.8404    315.16956     7285 
355000000   -1812.6751   -67.905439     6521.281   -2059.5499    3804.3195    312.58103     7285 
356000000    -1829.046   -140.93619    6381.2629    -2115.343    3803.4528    305.86962     7285 
357000000    -1834.126    19.768283    6477.9008   -2019.8279    3873.7222    310.50171     7285 
358000000   -1842.6984   -77.304399    6484.5519    -2033.204     3798.598    310.82051     7285 
359000000   -1817.1429   -12.498385    6417.4152    -2108.814    3913.4585    307.60249     7285 
360000000   -1791.0207   -62.149725    6387.9845      -2088.7     3817.571     306.1918     7285 
361000000   -1810.2684    18.444775    6534.6851   -2042.3505    3871.0637    313.22352     7285 
362000000   -1794.1938   -33.756033     6496.449   -2082.5726    3843.0105    311.39077     7285 
363000000   -1867.4432   -113.41677    6536.0636   -2065.8215    3819.8479     313.2896     7285 
364000000   -1787.3263   -143.71257    6596.4501     -2114.79    3758.4037    316.18407     7285 
365000000   -1817.6489   -89.713274    6475.6695   -2094.1637    3822.0993    310.39476     7285 
366000000    -1806.387   -20.781209    6469.5522    -2082.865    3868.4708    310.10154     7285 
367000000      -1785.5     21.01962    6531.5001    -2052.854    3859.3737    313.07086     7286 
368000000   -1834.0212   -48.780559    6446.9644   -2085.4587    3870.6994    309.01886     7286 
369000000   -1797.4162   -21.169544    6376.8397   -2071.9383     3848.185    305.65761     7286 
370000000   -1783.4046    48.950248    6457.9338    -1964.151    3796.5059    309.54465     7285 
371000000   -1784.2236   -101.21386    6477.4493   -2093.6548    3776.6645    310.48007     7285 
372000000   -1740.8296   -23.655528    6427.0005   -2083.4618    3800.6359    308.06193     7285 
373000000   -1784.4714    48.243908    6450.5959   -2081.2033    3913.9185    309.19292     7286 
374000000   -1746.6936   -30.786154     6490.394   -2073.7015     3789.609    311.10054     7286 
375000000    -1808.605     40.09936    6412.6281   -2026.8349    3875.5393    307.37303     7286 
376000000   -1761.4051   -59.163257     6523.532   -2093.4502    3795.6921    312.68893     7285 
377000000   -1756.5256    84.049957    6543.8678   -1999.3223    3839.8979    313.66367     7285 
378000000   -1745.6554    149.52035    6447.7004   -1948.6561    3843.8319    309.05413     7285 
379000000   -1793.8005    12.894021    6458.6518   -2035.8365    3842.5311    309.57906     7286 
380000000   -1799.2347    7.0125016    6441.5569   -2063.5611    3869.8083    308.75966     7286 
381000000   -1761.6947   -22.393179     6430.281   -2109.7042    3849.0057    308.21918     7286 
382000000    -1803.641   -24.336867    6531.4988   -2036.6109     3815.915    313.07079     7286 
383000000   -1775.6827   -64.777564    6490.2573   -2064.5042    3775.4094    311.09399     7286 
384000000   -1777.6824    59.120094    6437.6627    -2038.555    3875.3575      308.573     7286 
385000000   -1786.1825    16.036104    6450.9859   -2019.5818    3821.8003    309.21162     7286 
386000000   -1816.6471   -116.63115    6302.6488   -2037.8686    3737.8845    302.10145     7286 
387000000   -1766.0165   -96.048807    6405.8031   -2102.3844    3772.3521    307.04589     7286 
388000000   -1760.8264   -80.444083    6397.7301   -2110.3247     3790.707    306.65893     7286 
389000000    -1750.256   -20.568216    6389.1613   -2054.7997    3784.4875    306.24821     7285 
390000000   -1754.0053   -51.672648    6462.3042   -2096.0304    3798.3631    309.75413     7286 
391000000   -1841.1336   -91.569135    6501.9624   -2114.6892    3864.2537    311.65504     7286 
392000000    -1843.621   -48.573068    6593.7582   -2077.6222    3872.6702    316.05504     7286 
393000000   -1776.9762    9.8548705    6555.9639   -2099.9249    3886.7559    314.24347     7287 
394000000   -1817.0466   -99.521583    6430.6989   -2041.4489    3758.9739    308.23921     7287 
395000000   -1780.3861   -96.157944    6377.1087   -2128.9649    3813.1931     305.6705     7287 
396000000   -1817.2509   -12.322801    6561.6756   -2076.2217    3881.1498    314.51724     7287 
397000000    -1786.484   -54.515257    6543.9052   -2072.1426    3804.1114    313.66546     7287 
398000000   -1831.4075   -118.59415    6452.1904   -2121.1447    3833.9581    309.26935     7287 
399000000   -1763.0232    66.017239    6472.9101   -2015.9646     3845.005    310.26249     7287 
400000000    -1787.418   -29.864156    6393.9914   -2085.2445    3842.7983    306.47973     7287 
Loop time of 24088.6 on 14 procs for 100000000 steps with 7000 atoms

Performance: 10760.259 ns/day, 0.002 hours/ns, 4151.335 timesteps/s
99.6% CPU use with 14 MPI tasks x no OpenMP threads

MPI task timing breakdown:
Section |  min time  |  avg time  |  max time  |%varavg| %total
---------------------------------------------------------------
Pair    | 4254.9     | 4832.8     | 5587.5     | 573.7 | 20.06
Bond    | 1105       | 1150.2     | 1178.4     |  80.4 |  4.77
Neigh   | 3847.9     | 3882.1     | 3929.9     |  40.5 | 16.12
Comm    | 7066.2     | 8108.3     | 9397.7     | 702.2 | 33.66
Output  | 0.51476    | 0.515      | 0.51525    |   0.0 |  0.00
Modify  | 4360.5     | 4470.9     | 4540.4     | 102.4 | 18.56
Other   |            | 1644       |            |       |  6.82

Nlocal:    500 ave 533 max 482 min
Histogram: 3 3 1 3 0 1 1 0 1 1
Nghost:    680.929 ave 853 max 456 min
Histogram: 1 1 1 3 1 0 1 1 2 3
Neighs:    6392.86 ave 7596 max 5216 min
Histogram: 1 2 0 0 3 4 1 1 1 1

Total # of neighbors = 89500
Ave neighs/atom = 12.7857
Ave special neighs/atom = 7.17514
Neighbor list builds = 6125866
Dangerous builds = 0
System init for write_restart ...
System init for write_data ...
Total wall time: 6:41:29
