LAMMPS Description 

14000  atoms
14528  bonds
13200  angles

4  atom types
3  bond types
10 extra bond per atom
2  angle types

-471 429 xlo xhi
-428 473 ylo yhi
-364 799 zlo zhi

Masses
 
 1 1000
 2 1000
 3 1000
 4 1000
 
 
Atoms

2555 73 2 0.0 -166.79928588867188 -58.69195556640625 -229.8127899169922 
575 17 2 0.0 -38.627647399902344 7.844320774078369 -228.9131317138672 
574 17 2 0.0 -32.017845153808594 14.902978897094727 -232.35641479492188 
6185 177 3 0.0 -49.977203369140625 23.943740844726562 -227.04446411132812 
6186 177 4 0.0 -43.8487663269043 24.752939224243164 -234.6859130859375 
6187 177 4 0.0 -40.04881286621094 32.65269470214844 -240.3992462158203 
573 17 2 0.0 -31.550785064697266 24.25982666015625 -229.18470764160156 
2554 73 2 0.0 -159.67063903808594 -53.97059631347656 -224.57113647460938 
2553 73 2 0.0 -153.50440979003906 -58.18761444091797 -217.80194091796875 
579 17 2 0.0 -65.49120330810547 -13.615777969360352 -221.266357421875 
578 17 1 0.0 -55.464195251464844 -11.607427597045898 -221.9253387451172 
4429 127 4 0.0 -51.318016052246094 -13.014983177185059 -214.20263671875 
577 17 2 0.0 -46.18940353393555 -7.886655330657959 -221.38848876953125 
4924 141 4 0.0 -28.621490478515625 -7.189478397369385 -215.64291381835938 
4923 141 4 0.0 -19.289981842041016 -9.849991798400879 -218.0558319091797 
581 17 2 0.0 -74.8016128540039 4.403228282928467 -221.78721618652344 
580 17 2 0.0 -69.95188903808594 -4.721855163574219 -221.58935546875 
4427 127 4 0.0 -57.80879211425781 4.8864359855651855 -215.3300323486328 
4428 127 3 0.0 -52.873291015625 -3.4220128059387207 -214.8909149169922 
576 17 2 0.0 -41.744468688964844 0.8833442330360413 -222.24542236328125 
4926 141 4 0.0 -27.586151123046875 8.152287483215332 -216.68617248535156 
453 13 2 0.0 -177.61366271972656 17.534622192382812 -215.0658416748047 
454 13 2 0.0 -168.3085174560547 18.516740798950195 -219.8212432861328 
582 17 2 0.0 -81.25170135498047 9.628896713256836 -216.6405487060547 
4425 127 4 0.0 -71.39851379394531 18.889053344726562 -213.92662048339844 
4426 127 4 0.0 -64.8755874633789 11.969351768493652 -216.402099609375 
4927 141 4 0.0 -28.090961456298828 18.505826950073242 -216.56251525878906 
455 13 2 0.0 -164.41384887695312 27.842613220214844 -221.5038299560547 
1797 52 2 0.0 -144.74285888671875 35.79452133178711 -214.53060913085938 
561 17 2 0.0 -115.77679443359375 28.379602432250977 -222.6497344970703 
562 17 2 0.0 -115.4918212890625 35.40220642089844 -215.2610321044922 
565 17 2 0.0 -90.89079284667969 32.87251663208008 -216.85800170898438 
568 17 2 0.0 -72.54459381103516 33.796085357666016 -222.51344299316406 
569 17 2 0.0 -63.37441635131836 34.8497200012207 -226.27532958984375 
6184 177 4 0.0 -53.762577056884766 22.487070083618164 -218.35464477539062 
3368 97 2 0.0 -47.617103576660156 28.053630828857422 -213.76864624023438 
570 17 2 0.0 -55.5317268371582 34.22755813598633 -219.7991943359375 
572 17 2 0.0 -36.56795120239258 29.386293411254883 -222.04080200195312 
571 17 1 0.0 -45.872989654541016 33.0297737121582 -222.10287475585938 
2551 73 2 0.0 -160.5784454345703 -49.03511047363281 -204.94537353515625 
2552 73 1 0.0 -151.88755798339844 -52.6140022277832 -209.67874145507812 
6335 181 4 0.0 -90.98860168457031 -38.89013671875 -211.835693359375 
6334 181 4 0.0 -89.99532318115234 -32.331993103027344 -204.38479614257812 
4738 136 4 0.0 -75.46754455566406 -23.958892822265625 -203.6796875 
4739 136 4 0.0 -67.31365966796875 -29.72255516052246 -200.87608337402344 
3374 97 2 0.0 -46.20097732543945 -25.020679473876953 -201.56076049804688 
3375 97 2 0.0 -52.8713264465332 -32.321895599365234 -200.34912109375 
4736 136 3 0.0 -90.95491027832031 -12.311500549316406 -211.7369384765625 
4735 136 4 0.0 -98.88072204589844 -14.096846580505371 -205.9537811279297 
4737 136 4 0.0 -82.2412338256836 -17.871042251586914 -208.9096221923828 
585 17 1 0.0 -84.13836669921875 -5.573947429656982 -206.1001739501953 
4430 127 4 0.0 -55.807186126708984 -16.98639488220215 -205.90760803222656 
3373 97 2 0.0 -40.386810302734375 -16.97887420654297 -203.28636169433594 
3372 97 2 0.0 -38.458797454833984 -7.571801662445068 -206.6683807373047 
584 17 2 0.0 -91.09832000732422 1.8012508153915405 -205.55691528320312 
586 17 2 0.0 -75.59783172607422 -0.5420347452163696 -205.58657836914062 
587 17 2 0.0 -81.7747802734375 5.621300220489502 -201.12991333007812 
3371 97 1 0.0 -42.76544952392578 -0.5682089328765869 -211.49234008789062 
4925 141 3 0.0 -32.06324768066406 1.2748991250991821 -211.30514526367188 
1527 44 2 0.0 -25.33555793762207 3.244551420211792 -200.1130828857422 
452 13 1 0.0 -180.3179473876953 20.91742515563965 -206.04293823242188 
4414 127 3 0.0 -170.68263244628906 18.910404205322266 -201.40625 
4415 127 4 0.0 -162.2036895751953 13.804146766662598 -203.74024963378906 
4417 127 4 0.0 -143.69454956054688 20.557353973388672 -202.94764709472656 
4416 127 4 0.0 -153.65724182128906 18.64699363708496 -202.86575317382812 
583 17 2 0.0 -89.0489501953125 10.580726623535156 -210.11309814453125 
4422 127 4 0.0 -98.10852813720703 19.259923934936523 -206.29222106933594 
4423 127 4 0.0 -88.22544860839844 20.712215423583984 -206.32571411132812 
4424 127 4 0.0 -81.03070831298828 20.7574520111084 -213.33078002929688 
3370 97 2 0.0 -47.16054153442383 8.467885971069336 -209.81666564941406 
3369 97 2 0.0 -47.069393157958984 19.07211685180664 -211.12315368652344 
4061 117 4 0.0 -57.13053894042969 16.5100040435791 -204.52976989746094 
1526 44 2 0.0 -23.447797775268555 12.288949012756348 -202.99188232421875 
4418 127 4 0.0 -134.26437377929688 23.166454315185547 -204.3330841064453 
4420 127 4 0.0 -115.98641967773438 26.362930297851562 -207.85562133789062 
4419 127 4 0.0 -124.5117416381836 22.827415466308594 -203.61244201660156 
4421 127 3 0.0 -106.29779815673828 25.0693302154541 -206.15435791015625 
563 17 2 0.0 -107.0837631225586 35.18876647949219 -209.53079223632812 
564 17 1 0.0 -97.92625427246094 30.98891258239746 -210.2977294921875 
6182 177 4 0.0 -67.62167358398438 28.13098907470703 -206.28211975097656 
6183 177 4 0.0 -59.1553840637207 25.02269744873047 -210.5431671142578 
4929 141 4 0.0 -35.877685546875 27.317760467529297 -205.42318725585938 
4928 141 4 0.0 -26.810184478759766 25.598623275756836 -209.62423706054688 
2550 73 2 0.0 -164.37586975097656 -49.646324157714844 -195.52870178222656 
1397 40 1 0.0 -177.61386108398438 -39.215911865234375 -189.06698608398438 
2549 73 2 0.0 -163.94512939453125 -45.18815994262695 -186.7438201904297 
3376 97 2 0.0 -45.84257125854492 -39.71870040893555 -196.82818603515625 
3377 97 2 0.0 -38.48041534423828 -34.79555892944336 -192.04322814941406 
3711 107 4 0.0 -103.81706237792969 -23.6296329498291 -186.85418701171875 
3712 107 4 0.0 -112.19820404052734 -20.4957275390625 -191.57284545898438 
6332 181 3 0.0 -89.11042022705078 -22.10035514831543 -188.91014099121094 
6333 181 4 0.0 -85.34754943847656 -27.051734924316406 -196.45150756835938 
4740 136 4 0.0 -61.37334442138672 -27.95183753967285 -193.28292846679688 
4432 127 4 0.0 -48.15088653564453 -19.37421989440918 -188.15234375 
3378 97 1 0.0 -31.156112670898438 -27.976821899414062 -192.41030883789062 
3379 97 2 0.0 -23.715309143066406 -24.752588272094727 -197.88816833496094 
4734 136 4 0.0 -103.09567260742188 -10.769036293029785 -197.55831909179688 
4431 127 4 0.0 -49.722415924072266 -15.815839767456055 -197.86923217773438 
1531 44 2 0.0 -57.5755615234375 -12.350339889526367 -187.16751098632812 
1530 44 1 0.0 -47.39752197265625 -9.551755905151367 -188.63772583007812 
1529 44 2 0.0 -39.61042022705078 -7.722897529602051 -194.46347045898438 
4733 136 4 0.0 -105.73394775390625 -5.014169216156006 -190.11431884765625 
5532 159 4 0.0 -75.30321502685547 -4.859556198120117 -190.6173553466797 
5531 159 4 0.0 -84.6909408569336 -2.3861420154571533 -193.47760009765625 
5533 159 4 0.0 -65.86595916748047 -2.664693593978882 -192.1507110595703 
5534 159 3 0.0 -56.722049713134766 -3.059577465057373 -188.3443603515625 
1528 44 2 0.0 -30.245473861694336 -4.346503257751465 -195.5281524658203 
4412 127 4 0.0 -185.18919372558594 16.807693481445312 -187.68325805664062 
4413 127 4 0.0 -179.33592224121094 16.79779624938965 -196.46493530273438 
588 17 2 0.0 -82.320556640625 9.443445205688477 -191.64337158203125 
4935 141 4 0.0 -76.33639526367188 19.473430633544922 -199.0627899169922 
4934 141 4 0.0 -66.57209014892578 21.66073226928711 -195.30760192871094 
4063 117 4 0.0 -48.740150451660156 13.897997856140137 -189.1892547607422 
4062 117 4 0.0 -52.14358901977539 10.99284553527832 -198.0205535888672 
1524 44 2 0.0 -36.40092849731445 20.14185905456543 -190.84988403320312 
1525 44 2 0.0 -27.853586196899414 17.342117309570312 -195.29010009765625 
6369 182 4 0.0 -201.65818786621094 33.30209732055664 -195.97860717773438 
6370 182 4 0.0 -209.04698181152344 28.97602653503418 -190.37173461914062 
450 13 2 0.0 -175.30587768554688 22.223207473754883 -189.52545166015625 
451 13 2 0.0 -179.5772247314453 26.198715209960938 -197.71583557128906 
1791 52 2 0.0 -120.49121856689453 27.876487731933594 -194.22409057617188 
1792 52 2 0.0 -113.54576110839844 34.87085723876953 -193.6400604248047 
6180 177 4 0.0 -77.21453094482422 35.41463851928711 -194.40835571289062 
6181 177 4 0.0 -68.29501342773438 33.20631790161133 -197.70547485351562 
4933 141 4 0.0 -58.354576110839844 27.45043182373047 -194.5742950439453 
4932 141 3 0.0 -55.0315055847168 34.2897834777832 -187.8224639892578 
4930 141 4 0.0 -39.29896926879883 30.56674575805664 -196.39456176757812 
4931 141 4 0.0 -45.06475830078125 35.64568328857422 -190.13272094726562 
5425 155 4 0.0 -154.6663818359375 -67.03005981445312 -175.25230407714844 
2626 76 2 0.0 -39.04299545288086 -70.83497619628906 -177.93272399902344 
5424 155 4 0.0 -159.86807250976562 -59.831546783447266 -179.70626831054688 
5423 155 4 0.0 -166.30780029296875 -52.195091247558594 -180.44305419921875 
1400 40 2 0.0 -205.0182342529297 -44.836875915527344 -183.80380249023438 
1399 40 2 0.0 -196.0757598876953 -41.33391189575195 -185.96128845214844 
1398 40 2 0.0 -185.94705200195312 -44.18291091918945 -185.91421508789062 
1396 40 2 0.0 -170.2310333251953 -34.96337890625 -183.51904296875 
5422 155 3 0.0 -173.75018310546875 -45.33968734741211 -181.17762756347656 
5421 155 4 0.0 -180.83413696289062 -44.497398376464844 -175.01512145996094 
2548 73 2 0.0 -162.45237731933594 -43.142215728759766 -176.81455993652344 
2213 64 2 0.0 -104.4230728149414 -36.97822570800781 -178.357666015625 
4436 127 4 0.0 -33.64458465576172 -33.90657424926758 -177.8815460205078 
5419 155 4 0.0 -177.64108276367188 -29.26616096496582 -172.96888732910156 
1395 40 2 0.0 -165.71165466308594 -26.566452026367188 -179.69602966308594 
2215 64 2 0.0 -113.29313659667969 -19.583894729614258 -177.5263671875 
2214 64 2 0.0 -108.6202621459961 -27.721548080444336 -179.9949188232422 
2212 64 2 0.0 -96.59191131591797 -31.619037628173828 -175.83567810058594 
6330 181 4 0.0 -100.25531005859375 -22.927671432495117 -172.75787353515625 
6331 181 4 0.0 -94.47144317626953 -21.617361068725586 -180.99298095703125 
2211 64 2 0.0 -87.1665267944336 -30.57508087158203 -180.30091857910156 
2210 64 2 0.0 -79.59175109863281 -25.48175621032715 -183.50299072265625 
4743 136 3 0.0 -78.7723159790039 -20.691423416137695 -175.05128479003906 
4741 136 4 0.0 -61.87801742553711 -25.568662643432617 -183.6692657470703 
4742 136 4 0.0 -70.36222076416016 -24.3037109375 -177.7857208251953 
4433 127 4 0.0 -49.06037902832031 -25.104835510253906 -179.7764892578125 
4434 127 4 0.0 -39.76529312133789 -23.689287185668945 -176.14279174804688 
4435 127 3 0.0 -30.867155075073242 -25.13348960876465 -180.35316467285156 
3713 107 4 0.0 -119.51835632324219 -16.764278411865234 -185.9739990234375 
3714 107 3 0.0 -126.42276763916016 -10.678756713867188 -181.19947814941406 
2216 64 1 0.0 -121.1371841430664 -15.93186092376709 -173.1865234375 
2206 64 2 0.0 -103.80862426757812 -5.789593696594238 -177.5873260498047 
2208 64 2 0.0 -88.79069519042969 -11.480093955993652 -184.07569885253906 
2207 64 2 0.0 -97.67906951904297 -8.005748748779297 -184.5411834716797 
2209 64 1 0.0 -80.23139953613281 -15.98476505279541 -185.53219604492188 
1532 44 2 0.0 -67.62477111816406 -11.480914115905762 -185.22628784179688 
3715 107 4 0.0 -123.80152130126953 -3.5412538051605225 -174.23599243164062 
3716 107 4 0.0 -117.36605072021484 3.469447135925293 -178.35650634765625 
4732 136 4 0.0 -103.47869110107422 2.4628560543060303 -184.9453125 
4731 136 4 0.0 -106.48694610595703 5.701006889343262 -175.7803497314453 
1534 44 2 0.0 -73.4545669555664 5.330338001251221 -179.1154327392578 
1533 44 2 0.0 -69.33160400390625 -3.280587673187256 -180.04063415527344 
5535 159 4 0.0 -48.589324951171875 1.1424981355667114 -184.2406463623047 
5536 159 4 0.0 -40.36767578125 -2.13484263420105 -178.4657745361328 
4411 127 4 0.0 -188.38706970214844 15.690715789794922 -178.67330932617188 
1789 52 1 0.0 -121.99523162841797 15.20223331451416 -177.9425811767578 
1790 52 2 0.0 -122.07499694824219 21.568370819091797 -186.0428924560547 
3717 107 4 0.0 -112.763916015625 11.594429969787598 -181.39710998535156 
3718 107 4 0.0 -105.58487701416016 18.815719604492188 -180.688232421875 
3719 107 4 0.0 -97.74591827392578 21.277000427246094 -175.81350708007812 
590 17 2 0.0 -88.64006805419922 18.17495346069336 -175.96791076660156 
589 17 2 0.0 -82.4581527709961 14.330946922302246 -182.86380004882812 
3362 97 2 0.0 -66.72013092041016 22.035417556762695 -179.47882080078125 
4064 117 3 0.0 -45.935890197753906 12.79207992553711 -179.66456604003906 
449 13 2 0.0 -178.78768920898438 25.648221969604492 -180.50393676757812 
4728 136 4 0.0 -114.40577697753906 29.157094955444336 -177.10870361328125 
4200 120 4 0.0 -73.9238052368164 32.54903793334961 -177.37908935546875 
3363 97 2 0.0 -65.48258209228516 31.55108070373535 -182.95582580566406 
2906 84 2 0.0 -36.360626220703125 33.47024154663086 -184.4061737060547 
1523 44 1 0.0 -41.17249298095703 22.199993133544922 -182.4463348388672 
1522 44 2 0.0 -42.19153594970703 25.833091735839844 -173.17376708984375 
2627 76 2 0.0 -35.63492202758789 -68.95472717285156 -168.8382568359375 
2628 76 2 0.0 -34.09917068481445 -73.93084716796875 -160.0614776611328 
2547 73 2 0.0 -165.71658325195312 -48.92824172973633 -169.49160766601562 
2546 73 2 0.0 -164.32115173339844 -56.5254020690918 -162.5228271484375 
4439 127 4 0.0 -19.42729377746582 -54.71909713745117 -160.95147705078125 
4438 127 4 0.0 -21.683551788330078 -46.67675018310547 -166.47950744628906 
5420 155 4 0.0 -184.27130126953125 -36.361454010009766 -170.75698852539062 
6265 179 4 0.0 -173.99636840820312 -36.80965805053711 -166.87594604492188 
6264 179 4 0.0 -172.49192810058594 -43.27601623535156 -159.04286193847656 
6328 181 4 0.0 -104.91072845458984 -40.17043685913086 -162.0725860595703 
1640 47 2 0.0 -61.24813461303711 -33.422630310058594 -159.50799560546875 
1639 47 2 0.0 -51.98723602294922 -32.92119598388672 -164.29733276367188 
4437 127 4 0.0 -27.626914978027344 -39.9743537902832 -171.8972930908203 
5418 155 4 0.0 -172.65216064453125 -22.859766006469727 -167.59910583496094 
1394 40 2 0.0 -161.17710876464844 -27.741785049438477 -171.6186065673828 
1393 40 2 0.0 -163.5943603515625 -27.811803817749023 -161.566162109375 
6329 181 4 0.0 -102.79814147949219 -32.13566589355469 -167.5400848388672 
2223 64 1 0.0 -75.56771087646484 -21.155729293823242 -163.4149932861328 
1638 47 2 0.0 -44.482765197753906 -25.836502075195312 -163.6824493408203 
5417 155 4 0.0 -167.07101440429688 -16.09994125366211 -162.586669921875 
2217 64 2 0.0 -116.46353912353516 -9.25994873046875 -167.50416564941406 
2218 64 2 0.0 -108.94197845458984 -13.553397178649902 -162.6300811767578 
4744 136 4 0.0 -87.5224838256836 -16.815832138061523 -171.72056579589844 
4745 136 4 0.0 -96.14410400390625 -11.739609718322754 -171.1220703125 
2225 64 2 0.0 -85.15620422363281 -8.321900367736816 -164.21974182128906 
2224 64 2 0.0 -76.24104309082031 -11.869451522827148 -165.36952209472656 
5539 159 4 0.0 -53.91438293457031 -7.7133283615112305 -166.96795654296875 
5538 159 4 0.0 -46.41636276245117 -13.426302909851074 -169.8092803955078 
1637 47 2 0.0 -43.36534118652344 -16.824382781982422 -160.18865966796875 
5537 159 4 0.0 -38.903656005859375 -6.8090715408325195 -170.61314392089844 
1786 52 2 0.0 -145.66702270507812 6.728606224060059 -166.06259155273438 
1787 52 2 0.0 -137.17294311523438 8.093915939331055 -170.3668670654297 
4747 136 4 0.0 -102.2564926147461 4.5061845779418945 -165.12596130371094 
4746 136 4 0.0 -97.50182342529297 -2.428757429122925 -169.3213653564453 
5540 159 4 0.0 -51.58168029785156 0.4859529435634613 -161.24998474121094 
5122 147 4 0.0 -20.104394912719727 7.507129192352295 -164.4682159423828 
1788 52 2 0.0 -126.88018035888672 8.819308280944824 -171.70333862304688 
4729 136 3 0.0 -114.77080535888672 20.727712631225586 -172.25599670410156 
4730 136 4 0.0 -107.53199005126953 14.167192459106445 -171.08506774902344 
592 17 1 0.0 -101.06170654296875 17.30768585205078 -161.1063995361328 
591 17 2 0.0 -95.14242553710938 15.921919822692871 -168.8067626953125 
1537 44 1 0.0 -81.56444549560547 16.639127731323242 -163.1105499267578 
3361 97 2 0.0 -65.02578735351562 18.282596588134766 -170.2465057373047 
1536 44 2 0.0 -72.03209686279297 13.85195541381836 -161.7349090576172 
1535 44 2 0.0 -71.88320922851562 10.710132598876953 -170.60740661621094 
4065 117 4 0.0 -39.41434860229492 9.99781322479248 -172.36000061035156 
4066 117 4 0.0 -31.805084228515625 9.247835159301758 -165.64097595214844 
4067 117 4 0.0 -31.314191818237305 17.44894027709961 -160.30245971679688 
448 13 2 0.0 -175.1995086669922 28.42013168334961 -171.7271728515625 
447 13 2 0.0 -174.96246337890625 35.740333557128906 -164.37498474121094 
3721 107 3 0.0 -94.82415008544922 34.83062744140625 -163.65963745117188 
3720 107 4 0.0 -97.00238800048828 25.21253204345703 -166.37742614746094 
4198 120 4 0.0 -76.42717742919922 26.112112045288086 -161.25718688964844 
4199 120 4 0.0 -73.46949005126953 24.928436279296875 -170.45916748046875 
1521 44 2 0.0 -48.084632873535156 28.605375289916992 -165.74266052246094 
3392 97 1 0.0 -21.405075073242188 26.284467697143555 -160.51084899902344 
2629 76 1 0.0 -35.690982818603516 -75.81346130371094 -150.50828552246094 
4443 127 4 0.0 -21.47439193725586 -82.30305480957031 -146.1576690673828 
1643 47 2 0.0 -60.37892150878906 -60.81732177734375 -148.81185913085938 
1644 47 2 0.0 -67.40460968017578 -67.41915130615234 -145.8145751953125 
4441 127 4 0.0 -27.69110870361328 -65.55094146728516 -151.62164306640625 
4442 127 3 0.0 -25.191837310791016 -73.1228256225586 -146.2414093017578 
2545 73 1 0.0 -164.0889892578125 -59.48843765258789 -152.877685546875 
6262 179 3 0.0 -155.40696716308594 -52.40994644165039 -154.98924255371094 
6261 179 4 0.0 -144.4856414794922 -52.25428771972656 -154.9582977294922 
6260 179 4 0.0 -135.8725128173828 -46.97953414916992 -156.9975128173828 
6326 181 4 0.0 -93.73468780517578 -47.50709533691406 -155.8185577392578 
6325 181 3 0.0 -92.67715454101562 -48.58563995361328 -146.34909057617188 
2237 64 1 0.0 -83.99736785888672 -54.88648986816406 -149.9539337158203 
1642 47 1 0.0 -58.603214263916016 -50.90605163574219 -150.41436767578125 
4440 127 4 0.0 -20.18952751159668 -59.51091766357422 -152.24249267578125 
4901 141 4 0.0 -30.11301040649414 -50.03920364379883 -151.6748809814453 
6263 179 4 0.0 -163.34814453125 -46.48358154296875 -156.8484344482422 
6259 179 4 0.0 -126.73193359375 -46.20232009887695 -153.33184814453125 
6258 179 4 0.0 -118.84169006347656 -45.972381591796875 -148.1491241455078 
6327 181 4 0.0 -102.51740264892578 -44.408782958984375 -153.40406799316406 
2240 64 2 0.0 -95.54666137695312 -37.01342010498047 -158.52877807617188 
2239 64 2 0.0 -86.0697250366211 -38.99215316772461 -157.73324584960938 
2238 64 2 0.0 -80.99131774902344 -45.51903533935547 -152.0358123779297 
1641 47 2 0.0 -62.30280685424805 -41.83962631225586 -154.2548828125 
4902 141 4 0.0 -22.991865158081055 -44.37013244628906 -146.84059143066406 
1392 40 2 0.0 -163.9623565673828 -26.059452056884766 -151.46368408203125 
2220 64 2 0.0 -98.04061126708984 -22.61616325378418 -150.99664306640625 
2221 64 2 0.0 -88.57238006591797 -25.710927963256836 -152.74386596679688 
2222 64 2 0.0 -79.77685546875 -27.725053787231445 -157.15626525878906 
6322 181 4 0.0 -73.6355209350586 -31.27848243713379 -146.84141540527344 
6321 181 4 0.0 -73.16989135742188 -21.185760498046875 -146.0041961669922 
5416 155 4 0.0 -162.95278930664062 -9.301319122314453 -155.90487670898438 
5415 155 3 0.0 -166.07498168945312 -6.931538105010986 -146.49505615234375 
2219 64 2 0.0 -105.47991180419922 -17.66044807434082 -154.11753845214844 
1636 47 2 0.0 -47.710411071777344 -9.920287132263184 -154.5294952392578 
1377 40 2 0.0 -129.14718627929688 7.885746479034424 -149.90896606445312 
4750 136 3 0.0 -123.37789154052734 -0.22648149728775024 -146.18641662597656 
4749 136 4 0.0 -116.386962890625 4.205517292022705 -151.68165588378906 
4748 136 4 0.0 -108.94451904296875 3.8026859760284424 -157.960205078125 
2226 64 2 0.0 -90.00542449951172 -2.8790833950042725 -157.84298706054688 
2227 64 2 0.0 -89.99339294433594 0.6131302714347839 -148.71348571777344 
1635 47 1 0.0 -47.612709045410156 -2.220022678375244 -148.27752685546875 
5541 159 3 0.0 -42.932350158691406 0.973297655582428 -158.06173706054688 
5542 159 4 0.0 -35.22687911987305 2.853882312774658 -151.47543334960938 
1379 40 2 0.0 -147.20042419433594 13.229846954345703 -145.5417938232422 
1378 40 2 0.0 -138.92518615722656 9.579306602478027 -149.74742126464844 
594 17 2 0.0 -111.79691314697266 17.5180721282959 -147.47727966308594 
593 17 2 0.0 -110.83055114746094 19.546510696411133 -157.28872680664062 
1538 44 2 0.0 -87.89196014404297 16.4204044342041 -155.21739196777344 
1539 44 2 0.0 -96.31522369384766 15.1748628616333 -149.6698760986328 
4197 120 3 0.0 -78.66921997070312 20.91619873046875 -152.9769744873047 
4068 117 4 0.0 -30.659631729125977 18.206398010253906 -150.4452362060547 
5121 147 3 0.0 -20.525856018066406 15.263056755065918 -157.55368041992188 
595 17 2 0.0 -114.69435119628906 27.102445602416992 -148.63963317871094 
2925 84 2 0.0 -89.06863403320312 35.20009994506836 -148.65736389160156 
1519 44 2 0.0 -61.31119918823242 32.23324966430664 -153.38348388671875 
3605 103 4 0.0 -73.56491088867188 35.17757797241211 -157.99183654785156 
1520 44 2 0.0 -53.80546951293945 28.19367790222168 -157.89483642578125 
2630 76 2 0.0 -36.70115280151367 -78.20154571533203 -140.92605590820312 
2631 76 2 0.0 -30.529747009277344 -79.93215942382812 -133.30430603027344 
2544 73 2 0.0 -160.43539428710938 -61.86540603637695 -143.73910522460938 
1645 47 2 0.0 -76.08431243896484 -70.27943420410156 -141.33018493652344 
2543 73 2 0.0 -152.93165588378906 -56.74515914916992 -139.40541076660156 
2542 73 2 0.0 -142.62974548339844 -54.544891357421875 -138.57325744628906 
6257 179 4 0.0 -120.09060668945312 -51.540748596191406 -140.4710693359375 
6256 179 4 0.0 -114.11722564697266 -47.32028579711914 -133.3736114501953 
2236 64 2 0.0 -86.05845642089844 -56.156158447265625 -139.09310913085938 
5555 159 3 0.0 -51.67522430419922 -50.604026794433594 -141.7419891357422 
5557 159 4 0.0 -36.27650833129883 -49.989444732666016 -132.4818878173828 
3041 87 2 0.0 -20.92636489868164 -47.9326171875 -136.12757873535156 
2232 64 2 0.0 -95.37181854248047 -36.76654052734375 -134.85565185546875 
2233 64 2 0.0 -99.10507202148438 -45.88727951049805 -133.0594024658203 
6323 181 4 0.0 -77.71000671386719 -39.80049514770508 -144.6074981689453 
6324 181 4 0.0 -85.65090942382812 -43.31846237182617 -140.47625732421875 
5553 159 4 0.0 -60.13978958129883 -36.27584457397461 -134.98123168945312 
5554 159 4 0.0 -57.974815368652344 -43.29278564453125 -141.33016967773438 
5556 159 4 0.0 -43.938323974609375 -46.50668716430664 -137.2464599609375 
1391 40 2 0.0 -162.0311737060547 -22.006301879882812 -142.15330505371094 
2534 73 2 0.0 -106.97944641113281 -22.187223434448242 -143.78494262695312 
2536 73 2 0.0 -104.92998504638672 -26.932600021362305 -132.85211181640625 
2535 73 2 0.0 -100.61858367919922 -29.881006240844727 -141.6616668701172 
2231 64 2 0.0 -92.94120788574219 -27.426359176635742 -134.4768829345703 
6501 186 4 0.0 -82.5222396850586 -32.33533477783203 -134.72328186035156 
6243 179 4 0.0 -44.9090461730957 -32.61604309082031 -136.0952911376953 
1390 40 1 0.0 -158.63388061523438 -13.188165664672852 -140.29466247558594 
1389 40 2 0.0 -152.19400024414062 -6.065232276916504 -143.01083374023438 
3305 95 2 0.0 -133.91883850097656 -17.460811614990234 -132.50685119628906 
2533 73 2 0.0 -105.40180206298828 -13.111637115478516 -140.2095489501953 
2230 64 1 0.0 -88.55001831054688 -18.82996368408203 -136.8099822998047 
2532 73 2 0.0 -99.2679443359375 -12.399510383605957 -132.29598999023438 
2229 64 2 0.0 -87.87678527832031 -8.749817848205566 -136.23802185058594 
6320 181 4 0.0 -75.13272857666016 -15.714012145996094 -137.91217041015625 
1633 47 2 0.0 -37.38178634643555 -6.788264274597168 -132.63613891601562 
5414 155 4 0.0 -173.50440979003906 -3.6655964851379395 -140.19610595703125 
5413 155 4 0.0 -176.08468627929688 2.190782308578491 -132.87916564941406 
1388 40 2 0.0 -159.72520446777344 -1.479042410850525 -138.95982360839844 
1387 40 2 0.0 -166.10794067382812 -4.027894973754883 -131.70098876953125 
4752 136 4 0.0 -139.47251892089844 4.774673938751221 -138.59178161621094 
4751 136 4 0.0 -132.36460876464844 -1.5657012462615967 -142.69029235839844 
2228 64 2 0.0 -92.84101867675781 -0.21683956682682037 -139.10791015625 
1634 47 2 0.0 -40.731563568115234 -4.743105888366699 -141.7597198486328 
5545 159 4 0.0 -43.96519088745117 2.8887264728546143 -131.79299926757812 
5544 159 4 0.0 -39.36784362792969 6.781778812408447 -139.9586944580078 
5543 159 4 0.0 -30.60577964782715 5.0223188400268555 -143.18939208984375 
5411 155 4 0.0 -186.24212646484375 11.110468864440918 -133.7491912841797 
5410 155 4 0.0 -182.34725952148438 19.511503219604492 -138.23797607421875 
1381 40 2 0.0 -161.36312866210938 19.564193725585938 -133.72718811035156 
4753 136 4 0.0 -143.11598205566406 11.281441688537598 -132.84991455078125 
1380 40 2 0.0 -153.24533081054688 16.729490280151367 -138.44122314453125 
1376 40 1 0.0 -121.88452911376953 10.838584899902344 -144.185791015625 
3744 107 4 0.0 -125.90721893310547 17.425132751464844 -132.55999755859375 
1375 40 2 0.0 -114.6431884765625 12.463842391967773 -138.18568420410156 
4196 120 4 0.0 -79.40157318115234 16.65176773071289 -144.1560516357422 
4195 120 4 0.0 -81.92929077148438 13.031343460083008 -134.7919921875 
2928 84 2 0.0 -76.47618103027344 20.522991180419922 -131.8562774658203 
3204 92 2 0.0 -51.270904541015625 11.226858139038086 -132.195556640625 
4070 117 4 0.0 -36.502498626708984 14.441465377807617 -132.8822479248047 
4069 117 4 0.0 -31.906227111816406 17.453405380249023 -140.6807403564453 
5409 155 4 0.0 -181.06700134277344 29.45974349975586 -140.38812255859375 
3745 107 4 0.0 -124.09001159667969 25.486772537231445 -137.70571899414062 
1540 44 2 0.0 -98.28768920898438 22.604206085205078 -143.59019470214844 
2926 84 2 0.0 -88.24933624267578 32.42470169067383 -138.88418579101562 
2927 84 2 0.0 -84.57192993164062 23.542333602905273 -136.09671020507812 
5771 165 4 0.0 -65.22197723388672 30.027727127075195 -132.88841247558594 
1517 44 2 0.0 -71.9207992553711 35.373451232910156 -138.6387481689453 
2632 76 2 0.0 -26.16438102722168 -78.06399536132812 -124.6938705444336 
2541 73 2 0.0 -137.28738403320312 -50.50639724731445 -130.65374755859375 
2234 64 2 0.0 -102.17858123779297 -54.98878860473633 -129.31471252441406 
2235 64 2 0.0 -92.52899169921875 -57.50211715698242 -131.27139282226562 
6253 179 4 0.0 -96.46768951416016 -53.484249114990234 -117.80316925048828 
2523 73 2 0.0 -58.226524353027344 -54.77050018310547 -125.11561584472656 
6247 179 4 0.0 -50.31577682495117 -49.36847686767578 -118.66709899902344 
5558 159 4 0.0 -35.676292419433594 -56.36743927001953 -125.15680694580078 
6246 179 4 0.0 -43.610572814941406 -48.125457763671875 -126.15140533447266 
2540 73 2 0.0 -130.47450256347656 -44.91343688964844 -126.24806213378906 
3303 95 2 0.0 -137.29339599609375 -35.5258903503418 -125.31339263916016 
2539 73 2 0.0 -121.5219955444336 -41.2275390625 -122.68424987792969 
6255 179 3 0.0 -111.61245727539062 -45.80625915527344 -123.76486206054688 
2538 73 1 0.0 -113.34107208251953 -36.0970458984375 -118.82843017578125 
6500 186 3 0.0 -84.97891998291016 -38.22647476196289 -126.63832092285156 
6499 186 4 0.0 -85.30097961425781 -43.77322769165039 -118.8923110961914 
2524 73 1 0.0 -60.044925689697266 -44.691688537597656 -126.36302947998047 
2525 73 2 0.0 -65.69112396240234 -39.127132415771484 -121.1976318359375 
6242 179 4 0.0 -49.40781021118164 -38.98555374145508 -129.399169921875 
6241 179 3 0.0 -52.05536651611328 -39.21541213989258 -119.81330108642578 
6245 179 4 0.0 -39.21077346801758 -39.2005500793457 -125.86233520507812 
3040 87 2 0.0 -21.256887435913086 -44.48954772949219 -126.17455291748047 
3039 87 2 0.0 -20.18328285217285 -38.483341217041016 -118.21862030029297 
3304 95 2 0.0 -132.3526611328125 -27.197235107421875 -129.41851806640625 
2537 73 2 0.0 -106.44790649414062 -30.14661407470703 -123.5562744140625 
6502 186 4 0.0 -76.0741195678711 -27.007568359375 -129.04022216796875 
6503 186 4 0.0 -67.39397430419922 -22.593257904052734 -130.71743774414062 
5551 159 4 0.0 -61.5592041015625 -23.341678619384766 -120.5557632446289 
5552 159 4 0.0 -60.07807159423828 -31.602460861206055 -126.56942749023438 
2526 73 2 0.0 -70.3952865600586 -31.35357666015625 -118.02655029296875 
6244 179 4 0.0 -37.295570373535156 -31.420156478881836 -130.49037170410156 
3306 95 2 0.0 -131.88067626953125 -12.235074043273926 -123.98680877685547 
6318 181 3 0.0 -90.09089660644531 -16.322906494140625 -125.66181182861328 
2531 73 1 0.0 -99.5108642578125 -18.301198959350586 -123.50919342041016 
6317 181 4 0.0 -90.36752319335938 -6.565221786499023 -124.7435302734375 
6319 181 4 0.0 -80.92449188232422 -17.40456199645996 -129.7501678466797 