LAMMPS data file via write_data, version 5 Jun 2019, timestep = 300000000

7000 atoms
4 atom types
7290 bonds
3 bond types
6600 angles
2 angle types

-5.0000000000000000e+02 5.0000000000000000e+02 xlo xhi
-5.0000000000000000e+02 5.0000000000000000e+02 ylo yhi
-5.0000000000000000e+02 5.0000000000000000e+02 zlo zhi

Masses

1 1000
2 1000
3 1000
4 1000

Pair Coeffs # lj/cut

1 0.178 10
2 0.178 10
3 0.178 10
4 0.178 10

Angle Coeffs # cosine

1 2
2 2

Atoms # full

3011 87 2 0.0000000000000000e+00 -3.0720863938050211e+01 8.1724295039395578e+00 -1.9075192563855342e+02 0 0 0
490 14 2 0.0000000000000000e+00 -4.1219734033674484e+01 -6.2990225762998016e+00 -1.7611434996838898e+02 0 0 0
3013 87 2 0.0000000000000000e+00 -3.1265964814627434e+01 -4.1852555938105880e+00 -1.7656837212487736e+02 0 0 0
489 14 2 0.0000000000000000e+00 -4.1501645847108740e+01 3.9757424329789868e+00 -1.7683113368172354e+02 0 0 0
3012 87 2 0.0000000000000000e+00 -3.1164214872856629e+01 5.6276247834201190e+00 -1.8084222827551733e+02 0 0 0
4909 141 4 0.0000000000000000e+00 -2.4442183227109645e+01 5.0613938928191038e+00 -1.7527100977805048e+02 0 0 0
488 14 2 0.0000000000000000e+00 -4.0433146392373857e+01 1.2742752307251491e+01 -1.8011134415022028e+02 0 0 0
487 14 1 0.0000000000000000e+00 -3.6245702438319064e+01 2.1078582024295827e+01 -1.7532531541121151e+02 0 0 0
3014 87 1 0.0000000000000000e+00 -2.7333342320298151e+01 -1.0806726632410257e+01 -1.7064466778276332e+02 0 0 0
3015 87 2 0.0000000000000000e+00 -2.9252967144756788e+01 -1.6075190007140108e+01 -1.6219553189313089e+02 0 0 0
4435 127 3 0.0000000000000000e+00 -2.1393649903343672e+01 -5.7793010881171698e+00 -1.6265444487345269e+02 0 0 0
4432 127 4 0.0000000000000000e+00 -4.8300435461964668e+01 7.8784175566759922e+00 -1.6201732085233277e+02 0 0 0
4433 127 4 0.0000000000000000e+00 -3.9383453912861988e+01 3.3507344233867178e+00 -1.6180622666445760e+02 0 0 0
4434 127 4 0.0000000000000000e+00 -2.9587116625171674e+01 2.8760772833018211e-01 -1.6203655547376960e+02 0 0 0
4910 141 4 0.0000000000000000e+00 -3.2330533593202020e+01 1.0130359722032724e+01 -1.7036406853750972e+02 0 0 0
1809 52 2 0.0000000000000000e+00 -7.7449996288953926e+01 1.9127998460398722e+01 -1.6015409980827556e+02 0 0 0
4912 141 4 0.0000000000000000e+00 -4.8480419622146208e+01 2.1273260608432928e+01 -1.6830035241122337e+02 0 0 0
4911 141 3 0.0000000000000000e+00 -4.1633328069855366e+01 1.3622950779778240e+01 -1.6873362421674622e+02 0 0 0
486 14 2 0.0000000000000000e+00 -3.0734649555008012e+01 2.1777441252288725e+01 -1.6665074451711513e+02 0 0 0
587 17 2 0.0000000000000000e+00 -9.9282041393975675e+01 3.1207071206120702e+01 -1.6382168982129357e+02 0 0 0
1810 52 1 0.0000000000000000e+00 -8.4918449330130343e+01 2.6163108868364034e+01 -1.5929578301682076e+02 0 0 0
4913 141 4 0.0000000000000000e+00 -4.9792338867224835e+01 2.4364246176529132e+01 -1.5927999979314959e+02 0 0 0
485 14 2 0.0000000000000000e+00 -2.3355460913596417e+01 2.5415049281653438e+01 -1.6192916372150879e+02 0 0 0
2066 60 2 0.0000000000000000e+00 -9.0215333957610255e+01 -1.9664847344789855e+01 -1.5235094481228705e+02 0 0 0
3017 87 2 0.0000000000000000e+00 -3.5092202176944241e+01 -2.0157890959682419e+01 -1.4605715926727973e+02 0 0 0
5425 155 4 0.0000000000000000e+00 -1.2864250715609865e+02 -5.1493508497366456e+00 -1.5009762705614796e+02 0 0 0
1805 52 2 0.0000000000000000e+00 -7.1608514963940124e+01 -1.1336706460959387e+01 -1.4613481934083794e+02 0 0 0
1806 52 2 0.0000000000000000e+00 -6.4752889285870964e+01 -4.0754494863263098e+00 -1.4769518215536431e+02 0 0 0
2135 61 2 0.0000000000000000e+00 -5.0221119171092084e+01 -3.7516406308735357e+00 -1.5397435704574195e+02 0 0 0
3016 87 2 0.0000000000000000e+00 -3.5778546469280180e+01 -1.7188296456231292e+01 -1.5510639578992618e+02 0 0 0
2134 61 2 0.0000000000000000e+00 -4.0414852278910452e+01 -3.9852750541062774e+00 -1.5346379062084659e+02 0 0 0
2486 72 2 0.0000000000000000e+00 -1.9671695423604490e+02 8.1175824225536779e+00 -1.4716265681594015e+02 0 0 0
5424 155 4 0.0000000000000000e+00 -1.3652075897259076e+02 -1.0313839381456746e+00 -1.5137235066961154e+02 0 0 0
5423 155 4 0.0000000000000000e+00 -1.4247628537640927e+02 6.2853230628757553e+00 -1.4912130799061671e+02 0 0 0
1807 52 2 0.0000000000000000e+00 -6.9311843869565891e+01 3.0934313615969904e+00 -1.5342834679678771e+02 0 0 0
2133 61 2 0.0000000000000000e+00 -3.1439381255173789e+01 9.5616407179492613e-01 -1.5283075878976837e+02 0 0 0
2132 61 1 0.0000000000000000e+00 -2.1453735347599899e+01 1.1725423527782821e+00 -1.5361582742754504e+02 0 0 0
585 17 1 0.0000000000000000e+00 -1.0499425483420433e+02 2.1475882982265336e+01 -1.4772704737735515e+02 0 0 0
5904 169 4 0.0000000000000000e+00 -9.2453270491598303e+01 1.3210800650029878e+01 -1.4644625842798612e+02 0 0 0
1808 52 2 0.0000000000000000e+00 -7.0410474600458770e+01 1.1770090360020612e+01 -1.5754944434993695e+02 0 0 0
4429 127 4 0.0000000000000000e+00 -6.6787327033626838e+01 2.1919427014992195e+01 -1.5041792272875492e+02 0 0 0
4431 127 4 0.0000000000000000e+00 -5.2237335627240327e+01 1.4785093318159360e+01 -1.5551824211656233e+02 0 0 0
4430 127 4 0.0000000000000000e+00 -5.6809611609857100e+01 2.1864488902417460e+01 -1.5106692101308758e+02 0 0 0
4917 141 4 0.0000000000000000e+00 -2.6231868189765024e+01 1.1570225949538926e+01 -1.5637968476169993e+02 0 0 0
4916 141 4 0.0000000000000000e+00 -2.9752333159238187e+01 1.9607804252525568e+01 -1.5241506087031780e+02 0 0 0
586 17 2 0.0000000000000000e+00 -1.0336763462201856e+02 2.5019066731130490e+01 -1.5655876991759914e+02 0 0 0
1811 52 2 0.0000000000000000e+00 -9.0195250598513212e+01 3.4371157751861375e+01 -1.5734093628381379e+02 0 0 0
4427 127 4 0.0000000000000000e+00 -7.9575763844813338e+01 3.3072064851418695e+01 -1.5634724837145072e+02 0 0 0
4428 127 3 0.0000000000000000e+00 -7.6545604853164434e+01 2.4331197967015459e+01 -1.5180224627452139e+02 0 0 0
4914 141 4 0.0000000000000000e+00 -4.7450880063213276e+01 2.4348264090084200e+01 -1.4946741614940751e+02 0 0 0
4915 141 4 0.0000000000000000e+00 -3.7506871084493490e+01 2.5497248430630766e+01 -1.5026413696681254e+02 0 0 0
1632 47 2 0.0000000000000000e+00 -5.7645813820424415e+01 -9.2766692216806419e+01 -1.3393521438787295e+02 0 0 0
1631 47 2 0.0000000000000000e+00 -5.0098189585756415e+01 -8.7207644921592120e+01 -1.3836759385995748e+02 0 0 0
1630 47 2 0.0000000000000000e+00 -5.2662015072512006e+01 -8.0085953336463774e+01 -1.3206459551489093e+02 0 0 0
1629 47 2 0.0000000000000000e+00 -5.8886195493423642e+01 -7.2512794276286115e+01 -1.3193776354701896e+02 0 0 0
2080 60 2 0.0000000000000000e+00 -2.9552853390663554e+01 -7.5672687843766298e+01 -1.3208942715587833e+02 0 0 0
4546 130 4 0.0000000000000000e+00 -2.2674940139106550e+01 -5.9823806592201684e+01 -1.3201572481409818e+02 0 0 0
1627 47 2 0.0000000000000000e+00 -5.1103357433785526e+01 -5.5416026234381981e+01 -1.3271169606436376e+02 0 0 0
1626 47 2 0.0000000000000000e+00 -4.4891341381259537e+01 -4.9793861219126022e+01 -1.3837276770156811e+02 0 0 0
2240 64 2 0.0000000000000000e+00 -1.0066087252399861e+02 -3.2563519289103112e+01 -1.4455844899718139e+02 0 0 0
5539 159 4 0.0000000000000000e+00 -5.7357815269311580e+01 -3.5330255811317954e+01 -1.3569132136854333e+02 0 0 0
1625 47 2 0.0000000000000000e+00 -3.5946480149299035e+01 -4.4707928253976192e+01 -1.4084899698865362e+02 0 0 0
3019 87 2 0.0000000000000000e+00 -3.7652014860109084e+01 -3.5596237234221540e+01 -1.3332997588403711e+02 0 0 0
1624 47 2 0.0000000000000000e+00 -2.9698894666622376e+01 -3.6870682755508383e+01 -1.4096071789297991e+02 0 0 0
1623 47 2 0.0000000000000000e+00 -2.0734173602935105e+01 -3.3425109970780866e+01 -1.4122297227565045e+02 0 0 0
2239 64 2 0.0000000000000000e+00 -1.0300189008266294e+02 -2.7358512157482860e+01 -1.3585557971536076e+02 0 0 0
5538 159 4 0.0000000000000000e+00 -5.8142038425565993e+01 -2.5241233794445929e+01 -1.3505905904277628e+02 0 0 0
3018 87 2 0.0000000000000000e+00 -3.5413137869902783e+01 -2.7575805459783201e+01 -1.3941746692962744e+02 0 0 0
1786 52 2 0.0000000000000000e+00 -1.8015713557296061e+02 -5.3356440591614556e+00 -1.4230451159344358e+02 0 0 0
1787 52 2 0.0000000000000000e+00 -1.7032704601759406e+02 -5.8547241013393991e+00 -1.4416920412574297e+02 0 0 0
1788 52 2 0.0000000000000000e+00 -1.6049388672958347e+02 -4.2429520345988392e+00 -1.4128689395021098e+02 0 0 0
5909 169 4 0.0000000000000000e+00 -1.2161056001777526e+02 -1.0462268845243639e+01 -1.3217757760028474e+02 0 0 0
2067 60 2 0.0000000000000000e+00 -9.1799732230020410e+01 -1.6816074093433848e+01 -1.4285701318297896e+02 0 0 0
2068 60 2 0.0000000000000000e+00 -9.6909012693936589e+01 -1.6367907476513821e+01 -1.3506572287047965e+02 0 0 0
1803 52 1 0.0000000000000000e+00 -8.8822880107323783e+01 -6.6974202372179237e+00 -1.4308443619671590e+02 0 0 0
1802 52 2 0.0000000000000000e+00 -9.7876645085205297e+01 -5.0872275243306539e+00 -1.4012540032019041e+02 0 0 0
1804 52 2 0.0000000000000000e+00 -8.0773092227804256e+01 -1.2246177462786164e+01 -1.4326343342993030e+02 0 0 0
5535 159 4 0.0000000000000000e+00 -7.7601831966352350e+01 -5.3782368136580638e+00 -1.3590832078731094e+02 0 0 0
5537 159 4 0.0000000000000000e+00 -6.1663038387819697e+01 -1.6403896727772395e+01 -1.3310747668762932e+02 0 0 0
5536 159 4 0.0000000000000000e+00 -6.8207760112887954e+01 -9.7466528189135779e+00 -1.3526561234563803e+02 0 0 0
5139 147 4 0.0000000000000000e+00 -3.4860857556977031e+01 -6.0644104528620169e+00 -1.4255967647814680e+02 0 0 0
5138 147 4 0.0000000000000000e+00 -2.6934594495275025e+01 -1.2397560276834124e+01 -1.4294369132086467e+02 0 0 0
2487 72 2 0.0000000000000000e+00 -1.9167063430346789e+02 2.3643534754683357e+00 -1.4068318468688415e+02 0 0 0
1789 52 1 0.0000000000000000e+00 -1.5357133886429031e+02 2.3118541527784839e+00 -1.3743115415817473e+02 0 0 0
5422 155 3 0.0000000000000000e+00 -1.4398495528703017e+02 7.1132477062714852e+00 -1.3939222735821230e+02 0 0 0
5421 155 4 0.0000000000000000e+00 -1.3693894460042623e+02 3.3669132853314117e+00 -1.3336449917479337e+02 0 0 0
5908 169 4 0.0000000000000000e+00 -1.2428439500470471e+02 -6.9185742624521951e-01 -1.3244929702241788e+02 0 0 0
5906 169 4 0.0000000000000000e+00 -1.0896471441758425e+02 8.6415198264235453e+00 -1.3786152477391150e+02 0 0 0
1801 52 2 0.0000000000000000e+00 -1.0155772846227626e+02 9.0873504112648240e-01 -1.3371366063274880e+02 0 0 0
5533 159 4 0.0000000000000000e+00 -9.2667751775979369e+01 7.6902484651442995e+00 -1.3639520315678675e+02 0 0 0
5534 159 3 0.0000000000000000e+00 -8.5634169414182111e+01 5.1382572262957571e-01 -1.3534175652646854e+02 0 0 0
3207 92 2 0.0000000000000000e+00 -5.2551302716184438e+01 8.9856044293616044e+00 -1.4170777638230825e+02 0 0 0
5140 147 4 0.0000000000000000e+00 -3.8865200331472572e+01 9.8971285242009244e-01 -1.3635534848576216e+02 0 0 0
5141 147 4 0.0000000000000000e+00 -4.5675293147466355e+01 7.5945131336403611e+00 -1.3474242034143919e+02 0 0 0
3209 92 2 0.0000000000000000e+00 -3.4234090440402149e+01 6.2801243668053397e+00 -1.4485504749490980e+02 0 0 0
6164 177 3 0.0000000000000000e+00 -2.1919485363288040e+01 1.5419580547923626e+00 -1.4117242385017812e+02 0 0 0
3210 92 1 0.0000000000000000e+00 -2.9357396770416994e+01 7.1625541895264222e+00 -1.3556568138639923e+02 0 0 0
1795 52 2 0.0000000000000000e+00 -1.3272196777547958e+02 1.9795873391310781e+01 -1.3351527606262209e+02 0 0 0
1794 52 2 0.0000000000000000e+00 -1.4251934872935527e+02 2.1878865843512884e+01 -1.3214633294120176e+02 0 0 0
1798 52 2 0.0000000000000000e+00 -1.0690057659466223e+02 2.3494338778892999e+01 -1.3512580322209254e+02 0 0 0
5905 169 3 0.0000000000000000e+00 -1.0091198858915159e+02 1.1916792779121288e+01 -1.4263744831464859e+02 0 0 0
5903 169 4 0.0000000000000000e+00 -8.7187086310361423e+01 1.9775784012269735e+01 -1.4143411056393188e+02 0 0 0
5902 169 4 0.0000000000000000e+00 -8.0769732418571238e+01 1.5192219564890507e+01 -1.3484329729014021e+02 0 0 0
3205 92 2 0.0000000000000000e+00 -6.8313989798350562e+01 1.6609448753369968e+01 -1.3632280037460148e+02 0 0 0
3206 92 2 0.0000000000000000e+00 -6.2516064994725895e+01 1.2083858883205988e+01 -1.4306722628055229e+02 0 0 0
5142 147 3 0.0000000000000000e+00 -4.9817674696551421e+01 1.5481098164869808e+01 -1.3237532528369479e+02 0 0 0
3208 92 2 0.0000000000000000e+00 -4.2463055239745394e+01 1.0932877649871815e+01 -1.4396901155297348e+02 0 0 0
6165 177 4 0.0000000000000000e+00 -2.1175259658867549e+01 1.0526364297703417e+01 -1.4186724472442697e+02 0 0 0
6166 177 4 0.0000000000000000e+00 -2.3527577920741514e+01 1.7266510496835057e+01 -1.3494730833372171e+02 0 0 0
1797 52 2 0.0000000000000000e+00 -1.1672041037281241e+02 2.4948739497923885e+01 -1.3654864347783703e+02 0 0 0
584 17 2 0.0000000000000000e+00 -9.8968679097838503e+01 2.6577407849191399e+01 -1.4224959202521063e+02 0 0 0
583 17 2 0.0000000000000000e+00 -9.0761631000958118e+01 3.1305514222411013e+01 -1.4160186024831197e+02 0 0 0
6183 177 4 0.0000000000000000e+00 -7.5575486783660779e+01 3.2270776665718401e+01 -1.3716891379105635e+02 0 0 0
6182 177 4 0.0000000000000000e+00 -7.5519417655241980e+01 3.7757551415606521e+01 -1.4489259834493598e+02 0 0 0
5143 147 4 0.0000000000000000e+00 -5.1651964077012757e+01 2.5270140446188940e+01 -1.3394416321717904e+02 0 0 0
5144 147 4 0.0000000000000000e+00 -5.7292278724870364e+01 3.3089799495152121e+01 -1.3484027209112543e+02 0 0 0
3384 97 2 0.0000000000000000e+00 -3.2959101830949407e+01 2.5970585121717860e+01 -1.3320352593000541e+02 0 0 0
3383 97 2 0.0000000000000000e+00 -2.4755997224757710e+01 2.8611762667279176e+01 -1.3772749146092409e+02 0 0 0
4731 136 4 0.0000000000000000e+00 -8.1965163784142518e+01 -1.0219907114847051e+02 -1.2183258306232882e+02 0 0 0
4730 136 4 0.0000000000000000e+00 -7.7628212311745287e+01 -1.1093146258966847e+02 -1.2107631864246343e+02 0 0 0
1634 47 2 0.0000000000000000e+00 -7.0404104089956050e+01 -1.0241980364187158e+02 -1.2470972076789997e+02 0 0 0
2206 64 2 0.0000000000000000e+00 -5.1252634112047645e+01 -1.0974404201246718e+02 -1.2382058114555511e+02 0 0 0
2207 64 2 0.0000000000000000e+00 -5.4490915957041729e+01 -1.0016973025735390e+02 -1.2349983808019786e+02 0 0 0
1633 47 2 0.0000000000000000e+00 -6.6625853178669573e+01 -9.5443368078553746e+01 -1.3012198905051784e+02 0 0 0
6317 181 4 0.0000000000000000e+00 -4.3393635176251479e+01 -9.3284346274346134e+01 -1.2323750532763121e+02 0 0 0
6316 181 4 0.0000000000000000e+00 -3.4148305782645870e+01 -9.1559315958089996e+01 -1.2495990281071892e+02 0 0 0
2078 60 2 0.0000000000000000e+00 -4.6402913100587291e+01 -7.2700657327056390e+01 -1.2531966970293786e+02 0 0 0
2081 60 2 0.0000000000000000e+00 -2.0304258763458282e+01 -7.8891512706698009e+01 -1.2946909128498942e+02 0 0 0
6315 181 4 0.0000000000000000e+00 -2.9415603412193320e+01 -8.3082404999839198e+01 -1.2204596494871264e+02 0 0 0
2077 60 2 0.0000000000000000e+00 -5.2538327429015126e+01 -6.8279642811404955e+01 -1.1940745989205638e+02 0 0 0
1628 47 1 0.0000000000000000e+00 -5.7839414607303986e+01 -6.2480241705025186e+01 -1.3108245261972266e+02 0 0 0
2079 60 2 0.0000000000000000e+00 -3.7651353315843807e+01 -7.1001245891580794e+01 -1.3012660812941076e+02 0 0 0
5542 159 4 0.0000000000000000e+00 -6.4202990315354342e+01 -5.6147061140650955e+01 -1.1843781343402658e+02 0 0 0
5541 159 3 0.0000000000000000e+00 -5.7187093883375830e+01 -5.2976536977508346e+01 -1.2550585630018104e+02 0 0 0
4547 130 3 0.0000000000000000e+00 -2.8791768555672807e+01 -5.8491888438889099e+01 -1.2385732205897153e+02 0 0 0
3021 87 1 0.0000000000000000e+00 -2.7865537154113383e+01 -4.7393538866700233e+01 -1.2512160679907986e+02 0 0 0
4745 136 4 0.0000000000000000e+00 -1.2274602844472223e+02 -3.8962075613212129e+01 -1.1938918392467478e+02 0 0 0
4744 136 4 0.0000000000000000e+00 -1.1599204350108462e+02 -4.0177963155713378e+01 -1.2752024233318197e+02 0 0 0
4743 136 3 0.0000000000000000e+00 -1.0640181601226058e+02 -3.8312237536554328e+01 -1.2858382114992503e+02 0 0 0
4742 136 4 0.0000000000000000e+00 -9.8815672137367343e+01 -4.1709760010234909e+01 -1.2253324764702487e+02 0 0 0
2071 60 2 0.0000000000000000e+00 -7.9423717793899286e+01 -3.3196910446669030e+01 -1.1907244689593719e+02 0 0 0
5540 159 4 0.0000000000000000e+00 -5.4759168091185650e+01 -4.4688115185306863e+01 -1.3156507438762176e+02 0 0 0
3020 87 2 0.0000000000000000e+00 -3.7175271588686890e+01 -4.3966458462796879e+01 -1.2778429972520426e+02 0 0 0
5134 147 4 0.0000000000000000e+00 -2.3292984952521053e+01 -3.7367179967061055e+01 -1.2352591618155309e+02 0 0 0
2237 64 1 0.0000000000000000e+00 -1.1092243216374216e+02 -3.1029433860049881e+01 -1.2162703705079088e+02 0 0 0
2238 64 2 0.0000000000000000e+00 -1.0909178164525531e+02 -2.4499031638398904e+01 -1.2911050917213944e+02 0 0 0
5912 169 3 0.0000000000000000e+00 -1.0123641020215666e+02 -2.1271969183397200e+01 -1.2004223715669617e+02 0 0 0
2069 60 1 0.0000000000000000e+00 -9.2833981333992668e+01 -2.1239693792198285e+01 -1.2739458731097537e+02 0 0 0
2070 60 2 0.0000000000000000e+00 -8.6457011050112797e+01 -2.6967389513496556e+01 -1.2249347913416837e+02 0 0 0
5910 169 4 0.0000000000000000e+00 -1.1230754206055626e+02 -1.0402344417274746e+01 -1.2902840844930500e+02 0 0 0
5911 169 4 0.0000000000000000e+00 -1.0375054167309628e+02 -1.2883128256300038e+01 -1.2524184575321544e+02 0 0 0
2488 72 2 0.0000000000000000e+00 -1.8952554575642981e+02 -1.2828939719257246e+00 -1.3093436812777824e+02 0 0 0
2489 72 1 0.0000000000000000e+00 -1.8252166437679301e+02 2.1501166333499717e+00 -1.2385772110918829e+02 0 0 0
1790 52 2 0.0000000000000000e+00 -1.5120152834558510e+02 5.6457647687733852e+00 -1.2775254979982039e+02 0 0 0
5420 155 4 0.0000000000000000e+00 -1.3508313092842906e+02 4.3499535849358653e+00 -1.2432309697003176e+02 0 0 0
5907 169 4 0.0000000000000000e+00 -1.1647511879189744e+02 6.1135668017463223e+00 -1.3100764280724630e+02 0 0 0
5419 155 4 0.0000000000000000e+00 -1.2744966953049099e+02 9.5646332671246448e+00 -1.2058510066909304e+02 0 0 0
1800 52 2 0.0000000000000000e+00 -1.0432260502715670e+02 5.7255218133853933e+00 -1.2530847159653915e+02 0 0 0
5900 169 4 0.0000000000000000e+00 -7.6536978139463670e+01 1.4464295906889049e+00 -1.2125937922261927e+02 0 0 0
5901 169 4 0.0000000000000000e+00 -7.6920733908293542e+01 7.5094158409798606e+00 -1.2976869872969112e+02 0 0 0
3211 92 2 0.0000000000000000e+00 -2.5572479507391943e+01 -4.0291257637351879e-01 -1.2991360311334415e+02 0 0 0
6298 180 4 0.0000000000000000e+00 -1.9265839390315730e+02 1.2863874054119892e+01 -1.1928854174422277e+02 0 0 0
6297 180 3 0.0000000000000000e+00 -1.8297085584420563e+02 1.3171296509990633e+01 -1.2157068708269844e+02 0 0 0
6296 180 4 0.0000000000000000e+00 -1.7333311970507134e+02 1.4879413711554021e+01 -1.1844925026181255e+02 0 0 0
1791 52 2 0.0000000000000000e+00 -1.5200386770883475e+02 1.4406053715393389e+01 -1.2229824987005094e+02 0 0 0
1799 52 2 0.0000000000000000e+00 -1.0577923856978596e+02 1.4985033271094579e+01 -1.2987224754179806e+02 0 0 0
5532 159 4 0.0000000000000000e+00 -9.2855315484022739e+01 1.3198909616445953e+01 -1.2817668624647234e+02 0 0 0
5531 159 4 0.0000000000000000e+00 -9.3637780241153465e+01 2.3418887735499798e+01 -1.2678816670689511e+02 0 0 0
3204 92 2 0.0000000000000000e+00 -6.7413532882046766e+01 1.7358604136202636e+01 -1.2658956274939676e+02 0 0 0
3201 92 2 0.0000000000000000e+00 -5.0815245468416492e+01 1.0674384062702499e+01 -1.2063483551520513e+02 0 0 0
3386 97 2 0.0000000000000000e+00 -4.9788252523500176e+01 2.3412068850112966e+01 -1.2394957533871657e+02 0 0 0
3200 92 2 0.0000000000000000e+00 -4.1470101685304151e+01 1.0996056046753322e+01 -1.2373408120831850e+02 0 0 0
3385 97 1 0.0000000000000000e+00 -4.1221883345689825e+01 2.2362230046324708e+01 -1.2887090195904520e+02 0 0 0
3199 92 2 0.0000000000000000e+00 -3.2071224945751489e+01 1.4897743527099363e+01 -1.2226685120759147e+02 0 0 0
3198 92 2 0.0000000000000000e+00 -2.2501938825229917e+01 1.7610747892317502e+01 -1.2063790492580263e+02 0 0 0
2495 72 2 0.0000000000000000e+00 -1.5960305381384464e+02 3.4947881321784322e+01 -1.1973932808067792e+02 0 0 0
1792 52 2 0.0000000000000000e+00 -1.5154999348394705e+02 2.4492634773052405e+01 -1.2331927056398956e+02 0 0 0
1793 52 2 0.0000000000000000e+00 -1.4310855534111289e+02 2.9574885326632931e+01 -1.2569851181209933e+02 0 0 0
1796 52 1 0.0000000000000000e+00 -1.2470030069611170e+02 2.4690930798211227e+01 -1.3109079973891176e+02 0 0 0
6339 182 3 0.0000000000000000e+00 -1.2584044159636008e+02 3.1009476267430138e+01 -1.2181752699163648e+02 0 0 0
6338 182 4 0.0000000000000000e+00 -1.1759555484406422e+02 2.5314893066479673e+01 -1.2315295077275805e+02 0 0 0
6336 182 4 0.0000000000000000e+00 -1.0434558841814854e+02 3.1286969434104403e+01 -1.2079802527718418e+02 0 0 0
6185 177 3 0.0000000000000000e+00 -7.4947277987811205e+01 2.5796157974205681e+01 -1.1890929406699860e+02 0 0 0
6184 177 4 0.0000000000000000e+00 -7.7145297537212556e+01 2.9478074517889386e+01 -1.2747729687031183e+02 0 0 0
6513 187 4 0.0000000000000000e+00 -4.8313719546049704e+01 3.6785759335524396e+01 -1.2505999978464963e+02 0 0 0
6514 187 3 0.0000000000000000e+00 -4.0049125929938725e+01 3.0739756854146009e+01 -1.2296870947540019e+02 0 0 0
6167 177 4 0.0000000000000000e+00 -2.2566664556310410e+01 2.5068737488368726e+01 -1.2911739176302638e+02 0 0 0
4726 136 4 0.0000000000000000e+00 -6.8622627521868225e+01 -1.3559167864645070e+02 -1.1025415815359918e+02 0 0 0
4727 136 4 0.0000000000000000e+00 -6.1853131594835077e+01 -1.3062422360335674e+02 -1.1625214582007932e+02 0 0 0
4728 136 4 0.0000000000000000e+00 -6.1974251903231369e+01 -1.2070227877808939e+02 -1.1530929739056990e+02 0 0 0
6328 181 4 0.0000000000000000e+00 -2.4050944470459928e+01 -1.1591257460291685e+02 -1.0555982391559478e+02 0 0 0
6329 181 4 0.0000000000000000e+00 -3.0385124796661678e+01 -1.2309533260218578e+02 -1.0583139462895342e+02 0 0 0
4729 136 3 0.0000000000000000e+00 -6.9423367508350168e+01 -1.1372087608275362e+02 -1.1696128488716040e+02 0 0 0
1635 47 1 0.0000000000000000e+00 -7.4202661682201082e+01 -1.0355458167803809e+02 -1.1540113777580480e+02 0 0 0
6327 181 4 0.0000000000000000e+00 -2.5868323589232403e+01 -1.0615643095189097e+02 -1.0548359259066541e+02 0 0 0
4732 136 4 0.0000000000000000e+00 -8.1083688150104592e+01 -9.5396127434269332e+01 -1.1475773526093117e+02 0 0 0
1636 47 2 0.0000000000000000e+00 -7.3166012833164814e+01 -9.8555992731606608e+01 -1.0684603275478558e+02 0 0 0
2208 64 2 0.0000000000000000e+00 -5.7471586497092545e+01 -9.5996737381592780e+01 -1.1556430268234143e+02 0 0 0
2209 64 1 0.0000000000000000e+00 -5.3628330071896926e+01 -9.4383817534035558e+01 -1.0632207079695527e+02 0 0 0
6318 181 3 0.0000000000000000e+00 -4.5606435396300789e+01 -9.4128651888781945e+01 -1.1380217328888747e+02 0 0 0
6325 181 3 0.0000000000000000e+00 -2.7553213944861302e+01 -8.7467502335258757e+01 -1.0889562352027249e+02 0 0 0
6326 181 4 0.0000000000000000e+00 -2.7448677719200990e+01 -9.6675516990775989e+01 -1.0475659244971439e+02 0 0 0
4200 120 4 0.0000000000000000e+00 -1.0834939812435829e+02 -7.5602223898729591e+01 -1.0539483315058695e+02 0 0 0
4734 136 4 0.0000000000000000e+00 -8.9246403389520339e+01 -7.8422095400126679e+01 -1.1255093554355474e+02 0 0 0
4733 136 4 0.0000000000000000e+00 -8.3270683186513722e+01 -8.5449448923303095e+01 -1.1540211451902300e+02 0 0 0
5545 159 4 0.0000000000000000e+00 -8.2433608581501460e+01 -7.3597895051950005e+01 -1.0632261226919903e+02 0 0 0
6320 181 4 0.0000000000000000e+00 -4.8203230802927337e+01 -8.5871551875231631e+01 -1.0515192662991157e+02 0 0 0
6324 181 4 0.0000000000000000e+00 -3.5856602512934806e+01 -8.5755625965324768e+01 -1.1274541089948811e+02 0 0 0
6323 181 4 0.0000000000000000e+00 -4.0141293744884578e+01 -8.0583982021744220e+01 -1.0539808496630404e+02 0 0 0
6314 181 4 0.0000000000000000e+00 -2.9395941020446685e+01 -7.5089098970684915e+01 -1.1631858685645700e+02 0 0 0
1537 44 1 0.0000000000000000e+00 -2.1026556399982873e+01 -8.1363616379649429e+01 -1.1551538893536866e+02 0 0 0
1536 44 2 0.0000000000000000e+00 -2.0155416439179145e+01 -7.3747442545254444e+01 -1.0929117852977424e+02 0 0 0
5544 159 4 0.0000000000000000e+00 -7.4362353333726801e+01 -7.2025424108627448e+01 -1.1263189659092660e+02 0 0 0
5543 159 4 0.0000000000000000e+00 -7.0905375744077702e+01 -6.3796029135351674e+01 -1.1672528921113381e+02 0 0 0
2076 60 1 0.0000000000000000e+00 -5.4586602372607260e+01 -6.0586318441553559e+01 -1.1310821700955434e+02 0 0 0
6313 181 4 0.0000000000000000e+00 -3.8550914096237094e+01 -7.1042489637239541e+01 -1.1759273533540896e+02 0 0 0
6312 181 4 0.0000000000000000e+00 -4.6398345627064678e+01 -6.9593391516644161e+01 -1.1135865210160196e+02 0 0 0
2555 73 2 0.0000000000000000e+00 -1.6414972797065204e+02 -4.4911021395867920e+01 -1.0665800292232147e+02 0 0 0
2075 60 2 0.0000000000000000e+00 -5.2642055491712782e+01 -5.1505264083602881e+01 -1.0856559026056603e+02 0 0 0
4548 130 4 0.0000000000000000e+00 -3.2800695378068454e+01 -5.2426665295339369e+01 -1.1654616776123132e+02 0 0 0
4549 130 4 0.0000000000000000e+00 -2.8552711713309133e+01 -4.8394285574609029e+01 -1.0859621738450743e+02 0 0 0
2554 73 2 0.0000000000000000e+00 -1.7029385283885873e+02 -3.7007117931331720e+01 -1.0826351698981615e+02 0 0 0
2550 73 2 0.0000000000000000e+00 -1.4487025093761659e+02 -3.7765878891446910e+01 -1.0712634649851461e+02 0 0 0
2551 73 2 0.0000000000000000e+00 -1.5285491825594835e+02 -3.2168124994753754e+01 -1.0715856650447952e+02 0 0 0
2549 73 2 0.0000000000000000e+00 -1.3608743993569243e+02 -4.1129934600012717e+01 -1.0544250037167214e+02 0 0 0
4746 136 4 0.0000000000000000e+00 -1.2286544058327318e+02 -4.2311651093081473e+01 -1.0968797943897265e+02 0 0 0
4747 136 4 0.0000000000000000e+00 -1.2857977198808993e+02 -3.4649020773992980e+01 -1.0631161202451523e+02 0 0 0
5914 169 4 0.0000000000000000e+00 -1.0575132320491925e+02 -3.5013228714457348e+01 -1.1318589121336682e+02 0 0 0
5915 169 4 0.0000000000000000e+00 -1.1255491995506505e+02 -4.2310945029669149e+01 -1.1390317305430649e+02 0 0 0
4741 136 4 0.0000000000000000e+00 -9.5978577222850333e+01 -4.0358047819712333e+01 -1.1317188279753864e+02 0 0 0
4740 136 4 0.0000000000000000e+00 -1.0080316304364631e+02 -4.0543572681821175e+01 -1.0470566909963037e+02 0 0 0
2073 60 2 0.0000000000000000e+00 -6.6716163626412225e+01 -4.4018957338014310e+01 -1.0734104497409876e+02 0 0 0
2072 60 2 0.0000000000000000e+00 -7.1649317938121001e+01 -3.8496797015737705e+01 -1.1486879992572233e+02 0 0 0
2074 60 2 0.0000000000000000e+00 -5.7710951828195334e+01 -4.4227964576640147e+01 -1.0442629169150487e+02 0 0 0
5132 147 4 0.0000000000000000e+00 -3.6673905863415179e+01 -4.3723019587543241e+01 -1.1144862058561131e+02 0 0 0
5133 147 4 0.0000000000000000e+00 -2.8919638137372178e+01 -3.9969589976258135e+01 -1.1649152034137698e+02 0 0 0
2553 73 2 0.0000000000000000e+00 -1.6522665110051992e+02 -2.9098740041534601e+01 -1.1248544419784427e+02 0 0 0
2552 73 1 0.0000000000000000e+00 -1.5784766676069100e+02 -2.3441084351093657e+01 -1.0849579209127363e+02 0 0 0
4750 136 3 0.0000000000000000e+00 -1.4883760537527309e+02 -1.9203374675091371e+01 -1.1325940028361948e+02 0 0 0
4749 136 4 0.0000000000000000e+00 -1.4622083608855104e+02 -2.9313976516869069e+01 -1.1362690167598089e+02 0 0 0
4748 136 4 0.0000000000000000e+00 -1.3654507129170184e+02 -2.9619206112928548e+01 -1.0952038945789324e+02 0 0 0
2236 64 2 0.0000000000000000e+00 -1.1612273883732681e+02 -2.9529078020171102e+01 -1.1276635803627930e+02 0 0 0
2235 64 2 0.0000000000000000e+00 -1.2254860591778466e+02 -2.4503157840521073e+01 -1.0743142860323087e+02 0 0 0
5913 169 4 0.0000000000000000e+00 -9.7872300173049723e+01 -2.8680597201801628e+01 -1.1393013951829226e+02 0 0 0
2915 84 2 0.0000000000000000e+00 -8.7310629555443256e+01 -2.3429734856533504e+01 -1.0755828906829275e+02 0 0 0
2914 84 2 0.0000000000000000e+00 -7.9537760875690822e+01 -2.4665315805903667e+01 -1.1356254249259464e+02 0 0 0
2913 84 2 0.0000000000000000e+00 -7.0230708149330709e+01 -2.1973156865307143e+01 -1.1480140672885729e+02 0 0 0
1529 44 2 0.0000000000000000e+00 -4.9720250636575479e+01 -1.8422902738048389e+01 -1.0567467479154543e+02 0 0 0
4751 136 4 0.0000000000000000e+00 -1.4870828725052334e+02 -1.1602773769390895e+01 -1.0640692616645123e+02 0 0 0
3730 107 4 0.0000000000000000e+00 -1.2708303920528849e+02 -1.4485606020267181e+01 -1.0621148192518837e+02 0 0 0
3729 107 4 0.0000000000000000e+00 -1.2236551617061454e+02 -6.2129577286654838e+00 -1.0975645824022499e+02 0 0 0
2233 64 2 0.0000000000000000e+00 -1.0979399596249991e+02 -1.1567428776000117e+01 -1.0656578780983470e+02 0 0 0
5898 169 3 0.0000000000000000e+00 -8.9993513879614298e+01 -6.8987228835509402e+00 -1.1063306747937813e+02 0 0 0
5897 169 4 0.0000000000000000e+00 -9.9334909256893283e+01 -4.4229535686289942e+00 -1.0610846722277049e+02 0 0 0
2912 84 2 0.0000000000000000e+00 -6.3573516316952116e+01 -1.5938157310436743e+01 -1.1126183198166484e+02 0 0 0
2911 84 2 0.0000000000000000e+00 -5.8739112960272635e+01 -7.6798268792730271e+00 -1.1091716562650033e+02 0 0 0
6519 187 4 0.0000000000000000e+00 -4.4790083434644636e+01 -8.4890031525035727e+00 -1.0810983896539527e+02 0 0 0
6518 187 4 0.0000000000000000e+00 -3.6217915783185290e+01 -3.8222148915118472e+00 -1.0891313079641020e+02 0 0 0
2490 72 2 0.0000000000000000e+00 -1.7881934971229788e+02 6.2030766683107945e+00 -1.1519605194217262e+02 0 0 0
2491 72 2 0.0000000000000000e+00 -1.7577715355618298e+02 8.8443023993978453e+00 -1.0598997195384821e+02 0 0 0
4752 136 4 0.0000000000000000e+00 -1.5213459708891551e+02 -2.5372967798411250e+00 -1.0530468962587345e+02 0 0 0
3728 107 3 0.0000000000000000e+00 -1.2279830416179999e+02 3.5365320028024558e+00 -1.1092188731537918e+02 0 0 0
5899 169 4 0.0000000000000000e+00 -8.4837138088185384e+01 -2.3601318318483964e+00 -1.1736041143358965e+02 0 0 0
2910 84 2 0.0000000000000000e+00 -5.2522223690228266e+01 8.1135321522549375e-02 -1.0989015989335064e+02 0 0 0
2909 84 1 0.0000000000000000e+00 -4.7630641618807935e+01 8.5468049821877266e+00 -1.0741224256019716e+02 0 0 0