LAMMPS Description

7000  atoms
6800  bonds
6600  angles
0  dihedrals
0  impropers

4  atom types
3  bond types
10 extra bond per atom
2  angle types
0  dihedral types
0  improper types

-250.0 250.0 xlo xhi
-250.0 250.0 ylo yhi
-250.0 250.0 zlo zhi

Masses

1 1000  # A
2 1000  # AL
3 1000  # B
4 1000  # BL


Atoms

1 1 2 0 -126.345499 32.975021 -13.339496
2 1 2 0 -123.267005 36.491883 -15.115603
3 1 2 0 -120.188510 40.008745 -16.891709
4 1 1 0 -117.110015 43.525607 -18.667815
5 1 2 0 -114.031521 47.042469 -20.443922
6 1 2 0 -110.953026 50.559331 -22.220028
7 1 2 0 -107.874532 54.076192 -23.996134
8 1 2 0 -104.796037 57.593054 -25.772241
9 1 2 0 -101.717542 61.109916 -27.548347
10 1 2 0 -98.639048 64.626778 -29.324454
11 1 1 0 -95.560553 68.143640 -31.100560
12 1 2 0 -92.482058 71.660502 -32.876666
13 1 2 0 -89.403564 75.177363 -34.652773
14 1 2 0 -86.325069 78.694225 -36.428879
15 1 2 0 -83.246575 82.211087 -38.204985
16 1 2 0 -80.168080 85.727949 -39.981092
17 1 2 0 -77.089585 89.244811 -41.757198
18 1 1 0 -74.011091 92.761673 -43.533304
19 1 2 0 -70.932596 96.278534 -45.309411
20 1 2 0 -67.854101 99.795396 -47.085517
21 1 2 0 -64.775607 103.312258 -48.861623
22 1 2 0 -61.697112 106.829120 -50.637730
23 1 2 0 -58.618618 110.345982 -52.413836
24 1 2 0 -55.540123 113.862843 -54.189942
25 1 1 0 -52.461628 117.379705 -55.966049
26 1 2 0 -49.383134 120.896567 -57.742155
27 1 2 0 -46.304639 124.413429 -59.518261
28 1 2 0 -43.226144 127.930291 -61.294368
29 1 2 0 -40.147650 131.447153 -63.070474
30 1 2 0 -37.069155 134.964014 -64.846580
31 1 2 0 -33.990661 138.480876 -66.622687
32 1 1 0 -30.912166 141.997738 -68.398793
33 1 2 0 -27.833671 145.514600 -70.174899
34 1 2 0 -24.755177 149.031462 -71.951006
35 1 2 0 -21.676682 152.548324 -73.727112
36 2 2 0 14.993751 128.261175 33.163756
37 2 2 0 15.042942 124.163818 36.028934
38 2 2 0 15.092133 120.066461 38.894112
39 2 1 0 15.141324 115.969104 41.759290
40 2 2 0 15.190516 111.871747 44.624468
41 2 2 0 15.239707 107.774390 47.489646
42 2 2 0 15.288898 103.677033 50.354824
43 2 2 0 15.338089 99.579676 53.220002
44 2 2 0 15.387281 95.482319 56.085180
45 2 2 0 15.436472 91.384962 58.950358
46 2 1 0 15.485663 87.287605 61.815536
47 2 2 0 15.534854 83.190248 64.680714
48 2 2 0 15.584045 79.092891 67.545893
49 2 2 0 15.633237 74.995534 70.411071
50 2 2 0 15.682428 70.898177 73.276249
51 2 2 0 15.731619 66.800820 76.141427
52 2 2 0 15.780810 62.703462 79.006605
53 2 1 0 15.830002 58.606105 81.871783
54 2 2 0 15.879193 54.508748 84.736961
55 2 2 0 15.928384 50.411391 87.602139
56 2 2 0 15.977575 46.314034 90.467317
57 2 2 0 16.026767 42.216677 93.332495
58 2 2 0 16.075958 38.119320 96.197673
59 2 2 0 16.125149 34.021963 99.062851
60 2 1 0 16.174340 29.924606 101.928029
61 2 2 0 16.223531 25.827249 104.793207
62 2 2 0 16.272723 21.729892 107.658386
63 2 2 0 16.321914 17.632535 110.523564
64 2 2 0 16.371105 13.535178 113.388742
65 2 2 0 16.420296 9.437821 116.253920
66 2 2 0 16.469488 5.340464 119.119098
67 2 1 0 16.518679 1.243107 121.984276
68 2 2 0 16.567870 -2.854250 124.849454
69 2 2 0 16.617061 -6.951607 127.714632
70 2 2 0 16.666252 -11.048965 130.579810
71 3 2 0 135.615188 -9.444269 62.667802
72 3 2 0 133.432771 -5.281522 60.962343
73 3 2 0 131.250353 -1.118776 59.256883
74 3 1 0 129.067936 3.043971 57.551424
75 3 2 0 126.885518 7.206718 55.845964
76 3 2 0 124.703101 11.369465 54.140504
77 3 2 0 122.520683 15.532212 52.435045
78 3 2 0 120.338266 19.694959 50.729585
79 3 2 0 118.155849 23.857706 49.024125
80 3 2 0 115.973431 28.020452 47.318666
81 3 1 0 113.791014 32.183199 45.613206
82 3 2 0 111.608596 36.345946 43.907746
83 3 2 0 109.426179 40.508693 42.202287
84 3 2 0 107.243761 44.671440 40.496827
85 3 2 0 105.061344 48.834187 38.791367
86 3 2 0 102.878926 52.996934 37.085908
87 3 2 0 100.696509 57.159680 35.380448
88 3 1 0 98.514091 61.322427 33.674989
89 3 2 0 96.331674 65.485174 31.969529
90 3 2 0 94.149256 69.647921 30.264069
91 3 2 0 91.966839 73.810668 28.558610
92 3 2 0 89.784422 77.973415 26.853150
93 3 2 0 87.602004 82.136162 25.147690
94 3 2 0 85.419587 86.298908 23.442231
95 3 1 0 83.237169 90.461655 21.736771
96 3 2 0 81.054752 94.624402 20.031311
97 3 2 0 78.872334 98.787149 18.325852
98 3 2 0 76.689917 102.949896 16.620392
99 3 2 0 74.507499 107.112643 14.914932
100 3 2 0 72.325082 111.275390 13.209473
101 3 2 0 70.142664 115.438136 11.504013
102 3 1 0 67.960247 119.600883 9.798554
103 3 2 0 65.777829 123.763630 8.093094
104 3 2 0 63.595412 127.926377 6.387634
105 3 2 0 61.412995 132.089124 4.682175
106 4 2 0 -185.772591 74.078564 -33.689831
107 4 2 0 -182.559421 70.901145 -31.549844
108 4 2 0 -179.346251 67.723726 -29.409856
109 4 1 0 -176.133081 64.546307 -27.269869
110 4 2 0 -172.919911 61.368888 -25.129882
111 4 2 0 -169.706741 58.191468 -22.989894
112 4 2 0 -166.493571 55.014049 -20.849907
113 4 2 0 -163.280401 51.836630 -18.709920
114 4 2 0 -160.067231 48.659211 -16.569933
115 4 2 0 -156.854061 45.481792 -14.429945
116 4 1 0 -153.640890 42.304373 -12.289958
117 4 2 0 -150.427720 39.126953 -10.149971
118 4 2 0 -147.214550 35.949534 -8.009983
119 4 2 0 -144.001380 32.772115 -5.869996
120 4 2 0 -140.788210 29.594696 -3.730009
121 4 2 0 -137.575040 26.417277 -1.590022
122 4 2 0 -134.361870 23.239858 0.549966
123 4 1 0 -131.148700 20.062438 2.689953
124 4 2 0 -127.935530 16.885019 4.829940
125 4 2 0 -124.722360 13.707600 6.969927
126 4 2 0 -121.509190 10.530181 9.109915
127 4 2 0 -118.296020 7.352762 11.249902
128 4 2 0 -115.082850 4.175342 13.389889
129 4 2 0 -111.869680 0.997923 15.529877
130 4 1 0 -108.656510 -2.179496 17.669864
131 4 2 0 -105.443340 -5.356915 19.809851
132 4 2 0 -102.230169 -8.534334 21.949838
133 4 2 0 -99.016999 -11.711753 24.089826
134 4 2 0 -95.803829 -14.889173 26.229813
135 4 2 0 -92.590659 -18.066592 28.369800
136 4 2 0 -89.377489 -21.244011 30.509788
137 4 1 0 -86.164319 -24.421430 32.649775
138 4 2 0 -82.951149 -27.598849 34.789762
139 4 2 0 -79.737979 -30.776268 36.929749
140 4 2 0 -76.524809 -33.953688 39.069737
141 5 2 0 -122.731009 -36.328115 -62.978293
142 5 2 0 -117.838348 -35.298914 -62.927114
143 5 2 0 -112.945688 -34.269714 -62.875934
144 5 1 0 -108.053027 -33.240514 -62.824755
145 5 2 0 -103.160366 -32.211314 -62.773576
146 5 2 0 -98.267706 -31.182114 -62.722396
147 5 2 0 -93.375045 -30.152913 -62.671217
148 5 2 0 -88.482385 -29.123713 -62.620038
149 5 2 0 -83.589724 -28.094513 -62.568858
150 5 2 0 -78.697063 -27.065313 -62.517679
151 5 1 0 -73.804403 -26.036113 -62.466500
152 5 2 0 -68.911742 -25.006913 -62.415321
153 5 2 0 -64.019082 -23.977712 -62.364141
154 5 2 0 -59.126421 -22.948512 -62.312962
155 5 2 0 -54.233760 -21.919312 -62.261783
156 5 2 0 -49.341100 -20.890112 -62.210603
157 5 2 0 -44.448439 -19.860912 -62.159424
158 5 1 0 -39.555779 -18.831712 -62.108245
159 5 2 0 -34.663118 -17.802511 -62.057065
160 5 2 0 -29.770457 -16.773311 -62.005886
161 5 2 0 -24.877797 -15.744111 -61.954707
162 5 2 0 -19.985136 -14.714911 -61.903527
163 5 2 0 -15.092476 -13.685711 -61.852348
164 5 2 0 -10.199815 -12.656510 -61.801169
165 5 1 0 -5.307154 -11.627310 -61.749990
166 5 2 0 -0.414494 -10.598110 -61.698810
167 5 2 0 4.478167 -9.568910 -61.647631
168 5 2 0 9.370827 -8.539710 -61.596452
169 5 2 0 14.263488 -7.510510 -61.545272
170 5 2 0 19.156148 -6.481309 -61.494093
171 5 2 0 24.048809 -5.452109 -61.442914
172 5 1 0 28.941470 -4.422909 -61.391734
173 5 2 0 33.834130 -3.393709 -61.340555
174 5 2 0 38.726791 -2.364509 -61.289376
175 5 2 0 43.619451 -1.335309 -61.238196
176 6 2 0 -114.133533 99.366041 -72.381152
177 6 2 0 -114.758577 95.152100 -69.763516
178 6 2 0 -115.383621 90.938159 -67.145879
179 6 1 0 -116.008664 86.724217 -64.528242
180 6 2 0 -116.633708 82.510276 -61.910606
181 6 2 0 -117.258751 78.296335 -59.292969
182 6 2 0 -117.883795 74.082394 -56.675333
183 6 2 0 -118.508838 69.868453 -54.057696
184 6 2 0 -119.133882 65.654512 -51.440060
185 6 2 0 -119.758925 61.440571 -48.822423
186 6 1 0 -120.383969 57.226630 -46.204787
187 6 2 0 -121.009012 53.012689 -43.587150
188 6 2 0 -121.634056 48.798748 -40.969514
189 6 2 0 -122.259099 44.584807 -38.351877
190 6 2 0 -122.884143 40.370865 -35.734240
191 6 2 0 -123.509186 36.156924 -33.116604
192 6 2 0 -124.134230 31.942983 -30.498967
193 6 1 0 -124.759273 27.729042 -27.881331
194 6 2 0 -125.384317 23.515101 -25.263694
195 6 2 0 -126.009360 19.301160 -22.646058
196 6 2 0 -126.634404 15.087219 -20.028421
197 6 2 0 -127.259447 10.873278 -17.410785
198 6 2 0 -127.884491 6.659337 -14.793148
199 6 2 0 -128.509534 2.445396 -12.175512
200 6 1 0 -129.134578 -1.768545 -9.557875
201 6 2 0 -129.759621 -5.982487 -6.940239
202 6 2 0 -130.384665 -10.196428 -4.322602
203 6 2 0 -131.009709 -14.410369 -1.704965
204 6 2 0 -131.634752 -18.624310 0.912671
205 6 2 0 -132.259796 -22.838251 3.530308
206 6 2 0 -132.884839 -27.052192 6.147944
207 6 1 0 -133.509883 -31.266133 8.765581
208 6 2 0 -134.134926 -35.480074 11.383217
209 6 2 0 -134.759970 -39.694015 14.000854
210 6 2 0 -135.385013 -43.907956 16.618490
211 7 2 0 -113.630741 16.279758 -123.287597
212 7 2 0 -111.837889 12.436781 -120.638596
213 7 2 0 -110.045036 8.593803 -117.989595
214 7 1 0 -108.252183 4.750826 -115.340594
215 7 2 0 -106.459330 0.907849 -112.691594
216 7 2 0 -104.666477 -2.935128 -110.042593
217 7 2 0 -102.873624 -6.778105 -107.393592
218 7 2 0 -101.080771 -10.621083 -104.744592
219 7 2 0 -99.287919 -14.464060 -102.095591
220 7 2 0 -97.495066 -18.307037 -99.446590
221 7 1 0 -95.702213 -22.150014 -96.797590
222 7 2 0 -93.909360 -25.992992 -94.148589
223 7 2 0 -92.116507 -29.835969 -91.499588
224 7 2 0 -90.323654 -33.678946 -88.850587
225 7 2 0 -88.530801 -37.521923 -86.201587
226 7 2 0 -86.737949 -41.364900 -83.552586
227 7 2 0 -84.945096 -45.207878 -80.903585
228 7 1 0 -83.152243 -49.050855 -78.254585
229 7 2 0 -81.359390 -52.893832 -75.605584
230 7 2 0 -79.566537 -56.736809 -72.956583
231 7 2 0 -77.773684 -60.579787 -70.307583
232 7 2 0 -75.980831 -64.422764 -67.658582
233 7 2 0 -74.187979 -68.265741 -65.009581
234 7 2 0 -72.395126 -72.108718 -62.360580
235 7 1 0 -70.602273 -75.951695 -59.711580
236 7 2 0 -68.809420 -79.794673 -57.062579
237 7 2 0 -67.016567 -83.637650 -54.413578
238 7 2 0 -65.223714 -87.480627 -51.764578
239 7 2 0 -63.430861 -91.323604 -49.115577
240 7 2 0 -61.638009 -95.166582 -46.466576
241 7 2 0 -59.845156 -99.009559 -43.817576
242 7 1 0 -58.052303 -102.852536 -41.168575
243 7 2 0 -56.259450 -106.695513 -38.519574
244 7 2 0 -54.466597 -110.538490 -35.870573
245 7 2 0 -52.673744 -114.381468 -33.221573
246 8 2 0 0.816268 -149.115159 -82.550649
247 8 2 0 -1.736083 -146.355751 -79.253503
248 8 2 0 -4.288435 -143.596343 -75.956357
249 8 1 0 -6.840786 -140.836935 -72.659212
250 8 2 0 -9.393138 -138.077527 -69.362066
251 8 2 0 -11.945489 -135.318120 -66.064920
252 8 2 0 -14.497840 -132.558712 -62.767774
253 8 2 0 -17.050192 -129.799304 -59.470628
254 8 2 0 -19.602543 -127.039896 -56.173483
255 8 2 0 -22.154894 -124.280488 -52.876337
256 8 1 0 -24.707246 -121.521080 -49.579191
257 8 2 0 -27.259597 -118.761672 -46.282045
258 8 2 0 -29.811949 -116.002264 -42.984900
259 8 2 0 -32.364300 -113.242856 -39.687754
260 8 2 0 -34.916651 -110.483448 -36.390608
261 8 2 0 -37.469003 -107.724040 -33.093462
262 8 2 0 -40.021354 -104.964632 -29.796316
263 8 1 0 -42.573706 -102.205224 -26.499171
264 8 2 0 -45.126057 -99.445816 -23.202025
265 8 2 0 -47.678408 -96.686408 -19.904879
266 8 2 0 -50.230760 -93.927001 -16.607733
267 8 2 0 -52.783111 -91.167593 -13.310587
268 8 2 0 -55.335462 -88.408185 -10.013442
269 8 2 0 -57.887814 -85.648777 -6.716296
270 8 1 0 -60.440165 -82.889369 -3.419150
271 8 2 0 -62.992517 -80.129961 -0.122004
272 8 2 0 -65.544868 -77.370553 3.175141
273 8 2 0 -68.097219 -74.611145 6.472287
274 8 2 0 -70.649571 -71.851737 9.769433
275 8 2 0 -73.201922 -69.092329 13.066579
276 8 2 0 -75.754273 -66.332921 16.363725
277 8 1 0 -78.306625 -63.573513 19.660870
278 8 2 0 -80.858976 -60.814105 22.958016
279 8 2 0 -83.411328 -58.054697 26.255162
280 8 2 0 -85.963679 -55.295289 29.552308
281 9 2 0 104.552404 -122.612537 -78.914310
282 9 2 0 101.235451 -122.860648 -75.181179
283 9 2 0 97.918499 -123.108758 -71.448048
284 9 1 0 94.601546 -123.356869 -67.714917
285 9 2 0 91.284594 -123.604980 -63.981786
286 9 2 0 87.967641 -123.853090 -60.248655
287 9 2 0 84.650688 -124.101201 -56.515524
288 9 2 0 81.333736 -124.349312 -52.782393
289 9 2 0 78.016783 -124.597422 -49.049262
290 9 2 0 74.699831 -124.845533 -45.316131
291 9 1 0 71.382878 -125.093644 -41.583000
292 9 2 0 68.065925 -125.341754 -37.849870
293 9 2 0 64.748973 -125.589865 -34.116739
294 9 2 0 61.432020 -125.837976 -30.383608
295 9 2 0 58.115068 -126.086086 -26.650477
296 9 2 0 54.798115 -126.334197 -22.917346
297 9 2 0 51.481163 -126.582308 -19.184215
298 9 1 0 48.164210 -126.830419 -15.451084
299 9 2 0 44.847257 -127.078529 -11.717953
300 9 2 0 41.530305 -127.326640 -7.984822
301 9 2 0 38.213352 -127.574751 -4.251691
302 9 2 0 34.896400 -127.822861 -0.518560
303 9 2 0 31.579447 -128.070972 3.214571
304 9 2 0 28.262494 -128.319083 6.947702
305 9 1 0 24.945542 -128.567193 10.680833
306 9 2 0 21.628589 -128.815304 14.413964
307 9 2 0 18.311637 -129.063415 18.147095
308 9 2 0 14.994684 -129.311525 21.880226
309 9 2 0 11.677731 -129.559636 25.613357
310 9 2 0 8.360779 -129.807747 29.346487
311 9 2 0 5.043826 -130.055857 33.079618
312 9 1 0 1.726874 -130.303968 36.812749
313 9 2 0 -1.590079 -130.552079 40.545880
314 9 2 0 -4.907031 -130.800189 44.279011
315 9 2 0 -8.223984 -131.048300 48.012142
316 10 2 0 189.999964 76.245635 141.379414
317 10 2 0 188.548553 71.614826 142.583163
318 10 2 0 187.097141 66.984017 143.786911
319 10 1 0 185.645730 62.353208 144.990660
320 10 2 0 184.194318 57.722398 146.194408
321 10 2 0 182.742907 53.091589 147.398157
322 10 2 0 181.291495 48.460780 148.601905
323 10 2 0 179.840084 43.829971 149.805653
324 10 2 0 178.388672 39.199161 151.009402
325 10 2 0 176.937261 34.568352 152.213150
326 10 1 0 175.485849 29.937543 153.416899
327 10 2 0 174.034438 25.306734 154.620647
328 10 2 0 172.583026 20.675925 155.824396
329 10 2 0 171.131615 16.045115 157.028144
330 10 2 0 169.680203 11.414306 158.231893
331 10 2 0 168.228792 6.783497 159.435641
332 10 2 0 166.777380 2.152688 160.639390
333 10 1 0 165.325969 -2.478122 161.843138
334 10 2 0 163.874557 -7.108931 163.046887
335 10 2 0 162.423146 -11.739740 164.250635
336 10 2 0 160.971734 -16.370549 165.454384
337 10 2 0 159.520323 -21.001359 166.658132
338 10 2 0 158.068911 -25.632168 167.861880
339 10 2 0 156.617499 -30.262977 169.065629
340 10 1 0 155.166088 -34.893786 170.269377
341 10 2 0 153.714676 -39.524596 171.473126
342 10 2 0 152.263265 -44.155405 172.676874
343 10 2 0 150.811853 -48.786214 173.880623
344 10 2 0 149.360442 -53.417023 175.084371
345 10 2 0 147.909030 -58.047833 176.288120
346 10 2 0 146.457619 -62.678642 177.491868
347 10 1 0 145.006207 -67.309451 178.695617
348 10 2 0 143.554796 -71.940260 179.899365
349 10 2 0 142.103384 -76.571070 181.103114
350 10 2 0 140.651973 -81.201879 182.306862
351 11 2 0 55.671983 68.520100 -131.411345
352 11 2 0 52.391759 65.711930 -128.890570
353 11 2 0 49.111534 62.903759 -126.369796
354 11 1 0 45.831309 60.095588 -123.849022
355 11 2 0 42.551085 57.287417 -121.328248
356 11 2 0 39.270860 54.479247 -118.807473
357 11 2 0 35.990635 51.671076 -116.286699
358 11 2 0 32.710411 48.862905 -113.765925
359 11 2 0 29.430186 46.054734 -111.245150
360 11 2 0 26.149961 43.246564 -108.724376
361 11 1 0 22.869736 40.438393 -106.203602
362 11 2 0 19.589512 37.630222 -103.682828
363 11 2 0 16.309287 34.822051 -101.162053
364 11 2 0 13.029062 32.013881 -98.641279
365 11 2 0 9.748838 29.205710 -96.120505
366 11 2 0 6.468613 26.397539 -93.599730
367 11 2 0 3.188388 23.589368 -91.078956
368 11 1 0 -0.091836 20.781198 -88.558182
369 11 2 0 -3.372061 17.973027 -86.037408
370 11 2 0 -6.652286 15.164856 -83.516633
371 11 2 0 -9.932511 12.356685 -80.995859
372 11 2 0 -13.212735 9.548515 -78.475085
373 11 2 0 -16.492960 6.740344 -75.954310
374 11 2 0 -19.773185 3.932173 -73.433536
375 11 1 0 -23.053409 1.124002 -70.912762
376 11 2 0 -26.333634 -1.684168 -68.391988
377 11 2 0 -29.613859 -4.492339 -65.871213
378 11 2 0 -32.894083 -7.300510 -63.350439
379 11 2 0 -36.174308 -10.108681 -60.829665
380 11 2 0 -39.454533 -12.916851 -58.308891
381 11 2 0 -42.734758 -15.725022 -55.788116
382 11 1 0 -46.014982 -18.533193 -53.267342
383 11 2 0 -49.295207 -21.341363 -50.746568
384 11 2 0 -52.575432 -24.149534 -48.225793
385 11 2 0 -55.855656 -26.957705 -45.705019
386 12 2 0 4.773154 -100.799214 -30.459442
387 12 2 0 7.723233 -101.422909 -26.470954
388 12 2 0 10.673311 -102.046604 -22.482465
389 12 1 0 13.623389 -102.670299 -18.493976
390 12 2 0 16.573467 -103.293994 -14.505487
391 12 2 0 19.523545 -103.917689 -10.516998
392 12 2 0 22.473623 -104.541384 -6.528509
393 12 2 0 25.423701 -105.165079 -2.540020
394 12 2 0 28.373780 -105.788774 1.448469
395 12 2 0 31.323858 -106.412469 5.436957
396 12 1 0 34.273936 -107.036164 9.425446
397 12 2 0 37.224014 -107.659859 13.413935
398 12 2 0 40.174092 -108.283554 17.402424
399 12 2 0 43.124170 -108.907249 21.390913
400 12 2 0 46.074248 -109.530944 25.379402
401 12 2 0 49.024326 -110.154639 29.367891
402 12 2 0 51.974405 -110.778334 33.356380
403 12 1 0 54.924483 -111.402029 37.344868
404 12 2 0 57.874561 -112.025724 41.333357
405 12 2 0 60.824639 -112.649419 45.321846
406 12 2 0 63.774717 -113.273114 49.310335
407 12 2 0 66.724795 -113.896809 53.298824
408 12 2 0 69.674873 -114.520504 57.287313
409 12 2 0 72.624952 -115.144199 61.275802
410 12 1 0 75.575030 -115.767894 65.264291
411 12 2 0 78.525108 -116.391589 69.252779
412 12 2 0 81.475186 -117.015284 73.241268
413 12 2 0 84.425264 -117.638979 77.229757
414 12 2 0 87.375342 -118.262674 81.218246
415 12 2 0 90.325420 -118.886369 85.206735
416 12 2 0 93.275498 -119.510064 89.195224
417 12 1 0 96.225577 -120.133759 93.183713
418 12 2 0 99.175655 -120.757454 97.172202
419 12 2 0 102.125733 -121.381149 101.160691
420 12 2 0 105.075811 -122.004844 105.149179
421 13 2 0 -79.322458 118.993303 -162.945018
422 13 2 0 -80.460427 114.149018 -162.457237
423 13 2 0 -81.598395 109.304733 -161.969455
424 13 1 0 -82.736364 104.460448 -161.481674
425 13 2 0 -83.874333 99.616163 -160.993892
426 13 2 0 -85.012301 94.771878 -160.506111
427 13 2 0 -86.150270 89.927593 -160.018329
428 13 2 0 -87.288239 85.083308 -159.530548
429 13 2 0 -88.426207 80.239023 -159.042766
430 13 2 0 -89.564176 75.394739 -158.554985
431 13 1 0 -90.702145 70.550454 -158.067203
432 13 2 0 -91.840113 65.706169 -157.579422
433 13 2 0 -92.978082 60.861884 -157.091640
434 13 2 0 -94.116051 56.017599 -156.603858
435 13 2 0 -95.254019 51.173314 -156.116077
436 13 2 0 -96.391988 46.329029 -155.628295
437 13 2 0 -97.529957 41.484744 -155.140514
438 13 1 0 -98.667925 36.640459 -154.652732
439 13 2 0 -99.805894 31.796174 -154.164951
440 13 2 0 -100.943863 26.951889 -153.677169
441 13 2 0 -102.081831 22.107604 -153.189388
442 13 2 0 -103.219800 17.263319 -152.701606
443 13 2 0 -104.357769 12.419034 -152.213825
444 13 2 0 -105.495737 7.574749 -151.726043
445 13 1 0 -106.633706 2.730465 -151.238262
446 13 2 0 -107.771675 -2.113820 -150.750480
447 13 2 0 -108.909643 -6.958105 -150.262699
448 13 2 0 -110.047612 -11.802390 -149.774917
449 13 2 0 -111.185581 -16.646675 -149.287136
450 13 2 0 -112.323549 -21.490960 -148.799354
451 13 2 0 -113.461518 -26.335245 -148.311573
452 13 1 0 -114.599487 -31.179530 -147.823791
453 13 2 0 -115.737455 -36.023815 -147.336010
454 13 2 0 -116.875424 -40.868100 -146.848228
455 13 2 0 -118.013392 -45.712385 -146.360446
456 14 2 0 -5.381457 99.444247 -178.110441
457 14 2 0 -7.674330 95.880226 -175.457050
458 14 2 0 -9.967204 92.316206 -172.803658
459 14 1 0 -12.260078 88.752185 -170.150266
460 14 2 0 -14.552951 85.188165 -167.496875
461 14 2 0 -16.845825 81.624144 -164.843483
462 14 2 0 -19.138699 78.060123 -162.190091
463 14 2 0 -21.431572 74.496103 -159.536699
464 14 2 0 -23.724446 70.932082 -156.883308
465 14 2 0 -26.017320 67.368062 -154.229916
466 14 1 0 -28.310193 63.804041 -151.576524
467 14 2 0 -30.603067 60.240020 -148.923133
468 14 2 0 -32.895941 56.676000 -146.269741
469 14 2 0 -35.188814 53.111979 -143.616349
470 14 2 0 -37.481688 49.547959 -140.962957
471 14 2 0 -39.774562 45.983938 -138.309566
472 14 2 0 -42.067435 42.419917 -135.656174
473 14 1 0 -44.360309 38.855897 -133.002782
474 14 2 0 -46.653183 35.291876 -130.349390
475 14 2 0 -48.946056 31.727856 -127.695999
476 14 2 0 -51.238930 28.163835 -125.042607
477 14 2 0 -53.531804 24.599815 -122.389215
478 14 2 0 -55.824677 21.035794 -119.735824
479 14 2 0 -58.117551 17.471773 -117.082432
480 14 1 0 -60.410425 13.907753 -114.429040
481 14 2 0 -62.703298 10.343732 -111.775648
482 14 2 0 -64.996172 6.779712 -109.122257
483 14 2 0 -67.289046 3.215691 -106.468865
484 14 2 0 -69.581919 -0.348330 -103.815473
485 14 2 0 -71.874793 -3.912350 -101.162082
486 14 2 0 -74.167667 -7.476371 -98.508690
487 14 1 0 -76.460540 -11.040391 -95.855298
488 14 2 0 -78.753414 -14.604412 -93.201906
489 14 2 0 -81.046288 -18.168433 -90.548515
490 14 2 0 -83.339161 -21.732453 -87.895123
491 15 2 0 -130.002970 3.743899 89.673413
492 15 2 0 -126.676074 0.012570 89.578874
493 15 2 0 -123.349177 -3.718760 89.484335
494 15 1 0 -120.022281 -7.450090 89.389795
495 15 2 0 -116.695384 -11.181420 89.295256
496 15 2 0 -113.368488 -14.912749 89.200717
497 15 2 0 -110.041591 -18.644079 89.106177
498 15 2 0 -106.714695 -22.375409 89.011638
499 15 2 0 -103.387798 -26.106739 88.917099
500 15 2 0 -100.060902 -29.838069 88.822559
501 15 1 0 -96.734005 -33.569398 88.728020
502 15 2 0 -93.407109 -37.300728 88.633481
503 15 2 0 -90.080212 -41.032058 88.538941
504 15 2 0 -86.753316 -44.763388 88.444402
505 15 2 0 -83.426419 -48.494717 88.349863
506 15 2 0 -80.099522 -52.226047 88.255323
507 15 2 0 -76.772626 -55.957377 88.160784
508 15 1 0 -73.445729 -59.688707 88.066245
509 15 2 0 -70.118833 -63.420036 87.971705
510 15 2 0 -66.791936 -67.151366 87.877166
511 15 2 0 -63.465040 -70.882696 87.782627
512 15 2 0 -60.138143 -74.614026 87.688087
513 15 2 0 -56.811247 -78.345355 87.593548
514 15 2 0 -53.484350 -82.076685 87.499009
515 15 1 0 -50.157454 -85.808015 87.404469
516 15 2 0 -46.830557 -89.539345 87.309930
517 15 2 0 -43.503661 -93.270674 87.215391
518 15 2 0 -40.176764 -97.002004 87.120852
519 15 2 0 -36.849868 -100.733334 87.026312
520 15 2 0 -33.522971 -104.464664 86.931773
521 15 2 0 -30.196074 -108.195994 86.837234
522 15 1 0 -26.869178 -111.927323 86.742694
523 15 2 0 -23.542281 -115.658653 86.648155
524 15 2 0 -20.215385 -119.389983 86.553616
525 15 2 0 -16.888488 -123.121313 86.459076
526 16 2 0 124.684301 -71.027481 -53.558049
527 16 2 0 125.369097 -72.898154 -48.972023
528 16 2 0 126.053894 -74.768827 -44.385997
529 16 1 0 126.738690 -76.639500 -39.799970
530 16 2 0 127.423486 -78.510173 -35.213944
531 16 2 0 128.108283 -80.380846 -30.627918
532 16 2 0 128.793079 -82.251519 -26.041892
533 16 2 0 129.477875 -84.122192 -21.455865
534 16 2 0 130.162671 -85.992865 -16.869839
535 16 2 0 130.847468 -87.863538 -12.283813
536 16 1 0 131.532264 -89.734211 -7.697787
537 16 2 0 132.217060 -91.604884 -3.111761
538 16 2 0 132.901857 -93.475557 1.474266
539 16 2 0 133.586653 -95.346230 6.060292
540 16 2 0 134.271449 -97.216903 10.646318
541 16 2 0 134.956246 -99.087576 15.232344
542 16 2 0 135.641042 -100.958249 19.818371
543 16 1 0 136.325838 -102.828922 24.404397
544 16 2 0 137.010634 -104.699595 28.990423
545 16 2 0 137.695431 -106.570268 33.576449
546 16 2 0 138.380227 -108.440941 38.162476
547 16 2 0 139.065023 -110.311614 42.748502
548 16 2 0 139.749820 -112.182287 47.334528
549 16 2 0 140.434616 -114.052960 51.920554
550 16 1 0 141.119412 -115.923633 56.506580
551 16 2 0 141.804209 -117.794306 61.092607
552 16 2 0 142.489005 -119.664979 65.678633
553 16 2 0 143.173801 -121.535652 70.264659
554 16 2 0 143.858597 -123.406325 74.850685
555 16 2 0 144.543394 -125.276998 79.436712
556 16 2 0 145.228190 -127.147671 84.022738
557 16 1 0 145.912986 -129.018344 88.608764
558 16 2 0 146.597783 -130.889017 93.194790
559 16 2 0 147.282579 -132.759690 97.780816
560 16 2 0 147.967375 -134.630363 102.366843
561 17 2 0 70.187762 -146.200057 -177.671025
562 17 2 0 65.291040 -147.165448 -177.971245
563 17 2 0 60.394318 -148.130840 -178.271466
564 17 1 0 55.497596 -149.096231 -178.571686
565 17 2 0 50.600874 -150.061623 -178.871906
566 17 2 0 45.704152 -151.027014 -179.172126
567 17 2 0 40.807430 -151.992406 -179.472347
568 17 2 0 35.910708 -152.957797 -179.772567
569 17 2 0 31.013986 -153.923189 -180.072787
570 17 2 0 26.117264 -154.888581 -180.373007
571 17 1 0 21.220542 -155.853972 -180.673228
572 17 2 0 16.323820 -156.819364 -180.973448
573 17 2 0 11.427098 -157.784755 -181.273668
574 17 2 0 6.530376 -158.750147 -181.573888
575 17 2 0 1.633653 -159.715538 -181.874109
576 17 2 0 -3.263069 -160.680930 -182.174329
577 17 2 0 -8.159791 -161.646322 -182.474549
578 17 1 0 -13.056513 -162.611713 -182.774769
579 17 2 0 -17.953235 -163.577105 -183.074990
580 17 2 0 -22.849957 -164.542496 -183.375210
581 17 2 0 -27.746679 -165.507888 -183.675430
582 17 2 0 -32.643401 -166.473279 -183.975650
583 17 2 0 -37.540123 -167.438671 -184.275871
584 17 2 0 -42.436845 -168.404063 -184.576091
585 17 1 0 -47.333567 -169.369454 -184.876311
586 17 2 0 -52.230289 -170.334846 -185.176531
587 17 2 0 -57.127011 -171.300237 -185.476752
588 17 2 0 -62.023733 -172.265629 -185.776972
589 17 2 0 -66.920455 -173.231020 -186.077192
590 17 2 0 -71.817177 -174.196412 -186.377412
591 17 2 0 -76.713900 -175.161803 -186.677633
592 17 1 0 -81.610622 -176.127195 -186.977853
593 17 2 0 -86.507344 -177.092587 -187.278073
594 17 2 0 -91.404066 -178.057978 -187.578293
595 17 2 0 -96.300788 -179.023370 -187.878514
596 18 2 0 127.434496 -36.212200 -139.277186
597 18 2 0 122.788583 -36.224026 -137.429119
598 18 2 0 118.142670 -36.235852 -135.581051
599 18 1 0 113.496757 -36.247678 -133.732984
600 18 2 0 108.850844 -36.259504 -131.884917
601 18 2 0 104.204931 -36.271330 -130.036850
602 18 2 0 99.559018 -36.283156 -128.188782
603 18 2 0 94.913105 -36.294982 -126.340715
604 18 2 0 90.267192 -36.306808 -124.492648
605 18 2 0 85.621279 -36.318634 -122.644581
606 18 1 0 80.975366 -36.330460 -120.796513
607 18 2 0 76.329453 -36.342286 -118.948446
608 18 2 0 71.683540 -36.354112 -117.100379
609 18 2 0 67.037627 -36.365938 -115.252312
610 18 2 0 62.391714 -36.377764 -113.404245
611 18 2 0 57.745801 -36.389590 -111.556177
612 18 2 0 53.099888 -36.401416 -109.708110
613 18 1 0 48.453975 -36.413242 -107.860043
614 18 2 0 43.808062 -36.425068 -106.011976
615 18 2 0 39.162149 -36.436894 -104.163908
616 18 2 0 34.516236 -36.448720 -102.315841
617 18 2 0 29.870323 -36.460547 -100.467774
618 18 2 0 25.224410 -36.472373 -98.619707
619 18 2 0 20.578497 -36.484199 -96.771640
620 18 1 0 15.932584 -36.496025 -94.923572
621 18 2 0 11.286671 -36.507851 -93.075505
622 18 2 0 6.640758 -36.519677 -91.227438
623 18 2 0 1.994845 -36.531503 -89.379371
624 18 2 0 -2.651068 -36.543329 -87.531303
625 18 2 0 -7.296981 -36.555155 -85.683236
626 18 2 0 -11.942894 -36.566981 -83.835169
627 18 1 0 -16.588807 -36.578807 -81.987102
628 18 2 0 -21.234720 -36.590633 -80.139034
629 18 2 0 -25.880633 -36.602459 -78.290967
630 18 2 0 -30.526546 -36.614285 -76.442900
631 19 2 0 19.360211 0.092058 184.008298
632 19 2 0 24.115598 1.431438 183.238652
633 19 2 0 28.870985 2.770819 182.469005
634 19 1 0 33.626371 4.110199 181.699359
635 19 2 0 38.381758 5.449579 180.929712
636 19 2 0 43.137145 6.788960 180.160066
637 19 2 0 47.892532 8.128340 179.390419
638 19 2 0 52.647919 9.467720 178.620772
639 19 2 0 57.403306 10.807101 177.851126
640 19 2 0 62.158693 12.146481 177.081479
641 19 1 0 66.914080 13.485861 176.311833
642 19 2 0 71.669467 14.825242 175.542186
643 19 2 0 76.424853 16.164622 174.772539
644 19 2 0 81.180240 17.504002 174.002893
645 19 2 0 85.935627 18.843383 173.233246
646 19 2 0 90.691014 20.182763 172.463600
647 19 2 0 95.446401 21.522143 171.693953
648 19 1 0 100.201788 22.861524 170.924307
649 19 2 0 104.957175 24.200904 170.154660
650 19 2 0 109.712562 25.540284 169.385013
651 19 2 0 114.467949 26.879665 168.615367
652 19 2 0 119.223335 28.219045 167.845720
653 19 2 0 123.978722 29.558425 167.076074
654 19 2 0 128.734109 30.897806 166.306427
655 19 1 0 133.489496 32.237186 165.536780
656 19 2 0 138.244883 33.576566 164.767134
657 19 2 0 143.000270 34.915947 163.997487
658 19 2 0 147.755657 36.255327 163.227841
659 19 2 0 152.511044 37.594707 162.458194
660 19 2 0 157.266431 38.934088 161.688548
661 19 2 0 162.021817 40.273468 160.918901
662 19 1 0 166.777204 41.612848 160.149254
663 19 2 0 171.532591 42.952229 159.379608
664 19 2 0 176.287978 44.291609 158.609961
665 19 2 0 181.043365 45.630989 157.840315
666 20 2 0 139.274270 -143.098114 -103.590296
667 20 2 0 134.818366 -140.873228 -103.148923
668 20 2 0 130.362463 -138.648343 -102.707549
669 20 1 0 125.906560 -136.423458 -102.266175
670 20 2 0 121.450656 -134.198573 -101.824801
671 20 2 0 116.994753 -131.973688 -101.383428
672 20 2 0 112.538850 -129.748802 -100.942054
673 20 2 0 108.082946 -127.523917 -100.500680
674 20 2 0 103.627043 -125.299032 -100.059306
675 20 2 0 99.171139 -123.074147 -99.617933
676 20 1 0 94.715236 -120.849262 -99.176559
677 20 2 0 90.259333 -118.624376 -98.735185
678 20 2 0 85.803429 -116.399491 -98.293811
679 20 2 0 81.347526 -114.174606 -97.852438
680 20 2 0 76.891622 -111.949721 -97.411064
681 20 2 0 72.435719 -109.724836 -96.969690
682 20 2 0 67.979816 -107.499950 -96.528316
683 20 1 0 63.523912 -105.275065 -96.086943
684 20 2 0 59.068009 -103.050180 -95.645569
685 20 2 0 54.612105 -100.825295 -95.204195
686 20 2 0 50.156202 -98.600410 -94.762821
687 20 2 0 45.700299 -96.375524 -94.321448
688 20 2 0 41.244395 -94.150639 -93.880074
689 20 2 0 36.788492 -91.925754 -93.438700
690 20 1 0 32.332588 -89.700869 -92.997326
691 20 2 0 27.876685 -87.475984 -92.555953
692 20 2 0 23.420782 -85.251098 -92.114579