LAMMPS data file via write_data, version 5 Jun 2019, timestep = 500000000

7000 atoms
4 atom types
7283 bonds
3 bond types
6600 angles
2 angle types

-5.0000000000000000e+02 5.0000000000000000e+02 xlo xhi
-5.0000000000000000e+02 5.0000000000000000e+02 ylo yhi
-5.0000000000000000e+02 5.0000000000000000e+02 zlo zhi

Masses

1 1000
2 1000
3 1000
4 1000

Pair Coeffs # lj/cut

1 0.296 10
2 0.296 10
3 0.296 10
4 0.296 10

Angle Coeffs # cosine

1 2
2 2

Atoms # full

2092 60 2 0.0000000000000000e+00 -2.5988703428988686e+01 2.6537658376527872e+01 -1.7668745152602744e+02 0 0 0
2093 60 2 0.0000000000000000e+00 -1.6381168867474951e+01 2.6319180592616203e+01 -1.7938294165713049e+02 0 0 0
2094 60 2 0.0000000000000000e+00 -6.7856085235782295e+00 2.8272317265980014e+01 -1.8186879333885074e+02 0 0 0
490 14 2 0.0000000000000000e+00 -2.1956353422836237e+01 3.7331771445081614e+01 -1.8053801271953893e+02 0 0 0
489 14 2 0.0000000000000000e+00 -1.2893726372585684e+01 3.6891715667326899e+01 -1.8467845662322139e+02 0 0 0
488 14 2 0.0000000000000000e+00 -2.4055918748884504e+00 3.9399858156472582e+01 -1.8473716399007193e+02 0 0 0
1371 40 2 0.0000000000000000e+00 -4.8063779383675772e+01 -2.5280278733375152e+01 -1.6146013391473431e+02 0 0 0
6239 179 4 0.0000000000000000e+00 -5.7733087900146245e+01 -1.9515782663719509e+01 -1.6533464035261360e+02 0 0 0
6238 179 4 0.0000000000000000e+00 -6.5530170347872641e+01 -1.3560096318013287e+01 -1.6523035454066292e+02 0 0 0
6240 179 4 0.0000000000000000e+00 -4.8929633262509242e+01 -1.6268757579023038e+01 -1.6761628583094816e+02 0 0 0
1370 40 2 0.0000000000000000e+00 -3.9931383904252428e+01 -2.3144160633465201e+01 -1.6678952909988996e+02 0 0 0
1369 40 1 0.0000000000000000e+00 -3.1427672138518755e+01 -2.0279645457109023e+01 -1.6909815707175645e+02 0 0 0
6241 179 3 0.0000000000000000e+00 -3.9560626126935979e+01 -1.3574212785305630e+01 -1.6587058740906613e+02 0 0 0
1368 40 2 0.0000000000000000e+00 -2.7534690248117968e+01 -1.2603794442440719e+01 -1.6413296515649904e+02 0 0 0
6237 179 4 0.0000000000000000e+00 -6.8726635261911241e+01 -3.7749708562959556e+00 -1.6326058700739387e+02 0 0 0
2077 60 2 0.0000000000000000e+00 -2.5995626584304397e+01 -2.3728693519511590e+00 -1.6224107258118744e+02 0 0 0
2078 60 2 0.0000000000000000e+00 -1.9272064462466414e+01 2.5679128492957486e+00 -1.6754062358117838e+02 0 0 0
2075 60 2 0.0000000000000000e+00 -4.4704397740680555e+01 3.9782928313081860e+00 -1.6097560662702585e+02 0 0 0
2079 60 2 0.0000000000000000e+00 -1.0189125115914550e+01 5.7021564808193812e+00 -1.6407676814924830e+02 0 0 0
2080 60 2 0.0000000000000000e+00 -2.7469433361615714e+00 5.1024108682349523e+00 -1.7021152835348960e+02 0 0 0
2920 84 2 0.0000000000000000e+00 -4.5001445107666903e+01 2.6376647011059415e+01 -1.6418278500862746e+02 0 0 0
2091 60 2 0.0000000000000000e+00 -3.4503264180343599e+01 2.7433605217626766e+01 -1.7087641838568211e+02 0 0 0
5908 169 4 0.0000000000000000e+00 -2.5029425485167888e+01 1.7243733508211974e+01 -1.6289201887815540e+02 0 0 0
2085 60 2 0.0000000000000000e+00 -7.6059022028352272e+00 2.5742799364574246e+01 -1.6701123458875460e+02 0 0 0
2919 84 2 0.0000000000000000e+00 -4.9888431932542282e+01 3.3378570605279258e+01 -1.6928868093003373e+02 0 0 0
2918 84 2 0.0000000000000000e+00 -5.3100709052791245e+01 4.2345244721861519e+01 -1.6680809368964975e+02 0 0 0
6262 179 3 0.0000000000000000e+00 -2.9964498018691689e+01 3.7916952673226305e+01 -1.7400306859450998e+02 0 0 0
2090 60 1 0.0000000000000000e+00 -3.8436174766659214e+01 3.6001795291459281e+01 -1.6654831751492523e+02 0 0 0
6260 179 4 0.0000000000000000e+00 -1.7092985157552377e+01 3.3711818982454147e+01 -1.6186738427155095e+02 0 0 0
6261 179 4 0.0000000000000000e+00 -2.5937067597477551e+01 3.3745263886977689e+01 -1.6574451312252799e+02 0 0 0
2087 60 2 0.0000000000000000e+00 -1.7161936185974582e+01 4.1394390792877545e+01 -1.7005051998773379e+02 0 0 0
2086 60 2 0.0000000000000000e+00 -9.2793338710213540e+00 3.5666302335656887e+01 -1.6971769153674435e+02 0 0 0
6244 179 4 0.0000000000000000e+00 -1.7479188809454975e+01 -2.5536207122643010e+01 -1.6046111618188806e+02 0 0 0
1373 40 2 0.0000000000000000e+00 -6.2598006089686358e+01 -1.7954204315965839e+01 -1.5233223127028791e+02 0 0 0
1372 40 2 0.0000000000000000e+00 -5.3672337274279016e+01 -1.9310950007760692e+01 -1.5603026837325132e+02 0 0 0
2528 73 2 0.0000000000000000e+00 -4.2912851218251184e+01 -1.6166814337546558e+01 -1.5136381398940640e+02 0 0 0
2529 73 2 0.0000000000000000e+00 -4.7537538021159271e+01 -1.1160780625463579e+01 -1.5850764468613778e+02 0 0 0
6242 179 4 0.0000000000000000e+00 -3.5461862314132212e+01 -1.8284122892033945e+01 -1.5738715428370890e+02 0 0 0
6243 179 4 0.0000000000000000e+00 -2.6732211046165276e+01 -2.2400152400090601e+01 -1.6030756425962173e+02 0 0 0
1367 40 2 0.0000000000000000e+00 -2.4857058210799973e+01 -1.4300264680611875e+01 -1.5420939073774161e+02 0 0 0
1366 40 2 0.0000000000000000e+00 -2.2470013931453764e+01 -2.1221869593719944e+01 -1.4786350051057514e+02 0 0 0
6245 179 4 0.0000000000000000e+00 -1.0602670819486033e+01 -1.8628225048214375e+01 -1.5749485955352233e+02 0 0 0
1506 44 2 0.0000000000000000e+00 -4.0676352969762197e+00 -1.0928177841858171e+01 -1.4931254932239520e+02 0 0 0
6246 179 4 0.0000000000000000e+00 -5.4593711209479423e+00 -2.2136097080787657e+01 -1.4965123202241719e+02 0 0 0
6236 179 4 0.0000000000000000e+00 -7.7619472370724807e+01 -5.2030690633554295e+00 -1.5857450270314570e+02 0 0 0
6235 179 4 0.0000000000000000e+00 -7.1664354594155853e+01 2.3170819275902175e+00 -1.5463698894783204e+02 0 0 0
2530 73 2 0.0000000000000000e+00 -5.6824445589545242e+01 -8.7871825872859084e+00 -1.5714482262547435e+02 0 0 0
2531 73 1 0.0000000000000000e+00 -6.0263125130795778e+01 -2.3718808010095116e-01 -1.5279435027890776e+02 0 0 0
5541 159 3 0.0000000000000000e+00 -4.4185866625624769e+01 3.7119996403172817e-02 -1.5183803535278548e+02 0 0 0
5542 159 4 0.0000000000000000e+00 -5.1325807637508746e+01 -6.4780128519391971e+00 -1.4929324105461083e+02 0 0 0
2076 60 1 0.0000000000000000e+00 -3.5564811811538213e+01 -6.3542016524551337e-01 -1.5952103030334717e+02 0 0 0
5911 169 4 0.0000000000000000e+00 -3.2230504326962787e+01 -7.1628641686290901e+00 -1.5034023486398351e+02 0 0 0
5910 169 4 0.0000000000000000e+00 -2.6956190891732934e+01 1.0415131565625975e+00 -1.5200180378680116e+02 0 0 0
2222 64 2 0.0000000000000000e+00 -1.5346930917932365e+01 8.6146324157072729e-01 -1.5448737175802242e+02 0 0 0
2221 64 2 0.0000000000000000e+00 -9.2341969137607816e+00 -5.3826151259760309e+00 -1.5863786961804811e+02 0 0 0
2073 60 2 0.0000000000000000e+00 -5.5550592256881885e+01 1.4631645645558290e+01 -1.4892005609863341e+02 0 0 0
2074 60 2 0.0000000000000000e+00 -5.0775246010422116e+01 7.0618170234183220e+00 -1.5392081843870389e+02 0 0 0
5540 159 4 0.0000000000000000e+00 -3.5525073286053335e+01 3.1633422141807306e+00 -1.4767921319971813e+02 0 0 0
5909 169 4 0.0000000000000000e+00 -2.4291239481933147e+01 8.6373497307447664e+00 -1.5747872044571952e+02 0 0 0
3635 104 4 0.0000000000000000e+00 -9.9724952041314250e+00 1.2246104364891639e+01 -1.4727223717230498e+02 0 0 0
3636 104 4 0.0000000000000000e+00 -2.5954348173465287e+00 7.5786232762143131e+00 -1.5216554265717477e+02 0 0 0
4935 141 4 0.0000000000000000e+00 -9.8352321799996204e+01 1.9669862688217581e+01 -1.4822486600846440e+02 0 0 0
2922 84 2 0.0000000000000000e+00 -5.8246180229164231e+01 2.8534850358766924e+01 -1.5254665587294372e+02 0 0 0
3742 107 3 0.0000000000000000e+00 -6.7910830583846092e+01 2.7666574421498225e+01 -1.4831278411516826e+02 0 0 0
2921 84 2 0.0000000000000000e+00 -5.2556414849090046e+01 2.3281505907912617e+01 -1.5862754138801105e+02 0 0 0
5907 169 4 0.0000000000000000e+00 -2.8986577334185313e+01 2.4705340895625248e+01 -1.5772973466737233e+02 0 0 0
6258 179 4 0.0000000000000000e+00 -6.7471010285030193e+00 1.7400342490602810e+01 -1.5618764826766358e+02 0 0 0
6259 179 4 0.0000000000000000e+00 -1.2555644031398623e+01 2.5574032160133235e+01 -1.5702644182088659e+02 0 0 0
1739 50 2 0.0000000000000000e+00 -8.5227941783243267e+01 4.0854606803917214e+01 -1.4741591821094303e+02 0 0 0
3744 107 4 0.0000000000000000e+00 -7.4192083710888681e+01 4.0043844530049128e+01 -1.5022598473413819e+02 0 0 0
3745 107 4 0.0000000000000000e+00 -7.8909388124721673e+01 4.1712433895520761e+01 -1.5885431404733441e+02 0 0 0
2536 73 2 0.0000000000000000e+00 -4.7232226989268483e+01 3.3096984238320928e+01 -1.5070370771463212e+02 0 0 0
2537 73 2 0.0000000000000000e+00 -4.0070303509398279e+01 3.8858607436801357e+01 -1.5397714588258773e+02 0 0 0
5906 169 4 0.0000000000000000e+00 -2.8094991753392321e+01 3.5048181697586188e+01 -1.5565763462539294e+02 0 0 0
1534 44 2 0.0000000000000000e+00 -1.7750253073138602e+01 3.5657953929066117e+01 -1.4938584130442183e+02 0 0 0
1521 44 2 0.0000000000000000e+00 -5.8297373385016748e+01 -5.2288397826302841e+01 -1.3494109820600184e+02 0 0 0
1520 44 2 0.0000000000000000e+00 -5.1538864562517929e+01 -4.6148570602906368e+01 -1.3758853704897356e+02 0 0 0
6325 181 3 0.0000000000000000e+00 -7.7415144387685180e+00 -4.7529930406793447e+01 -1.3382781881202538e+02 0 0 0
5546 159 4 0.0000000000000000e+00 -7.5533500049226632e+01 -2.6814140880983462e+01 -1.4205383157400769e+02 0 0 0
5545 159 4 0.0000000000000000e+00 -6.6115118650602597e+01 -2.9348349038188278e+01 -1.4043421158748808e+02 0 0 0
5915 169 4 0.0000000000000000e+00 -5.1395460584264143e+01 -3.2395869300267528e+01 -1.4210049288764290e+02 0 0 0
1519 44 2 0.0000000000000000e+00 -4.7331017501335630e+01 -3.7338800178498744e+01 -1.3403399167308774e+02 0 0 0
5914 169 4 0.0000000000000000e+00 -4.1910832227529561e+01 -3.0576606031406563e+01 -1.4243369799173854e+02 0 0 0
5913 169 4 0.0000000000000000e+00 -3.3812927088429980e+01 -2.6578801161876555e+01 -1.4718612781567379e+02 0 0 0
5547 159 4 0.0000000000000000e+00 -8.3566185170452201e+01 -2.0329436166794455e+01 -1.4351777071153171e+02 0 0 0
1375 40 2 0.0000000000000000e+00 -7.0342789525107719e+01 -1.2061419490080105e+01 -1.3835238049874366e+02 0 0 0
1374 40 2 0.0000000000000000e+00 -7.0208388012823505e+01 -1.8022288074030811e+01 -1.4614374492861734e+02 0 0 0
5548 159 3 0.0000000000000000e+00 -7.9707977737846718e+01 -1.1348746988561322e+01 -1.4378120408854778e+02 0 0 0
5544 159 4 0.0000000000000000e+00 -6.1556507892116564e+01 -2.0072840179128541e+01 -1.3911430918377317e+02 0 0 0
5543 159 4 0.0000000000000000e+00 -5.4493000303490277e+01 -1.4686321212394471e+01 -1.4476249678798769e+02 0 0 0
1526 44 2 0.0000000000000000e+00 -5.0894543299367768e+01 -1.3228511499602506e+01 -1.3587092114379135e+02 0 0 0
1525 44 2 0.0000000000000000e+00 -5.3001232555399234e+01 -2.2883465878988297e+01 -1.3498701448735869e+02 0 0 0
2527 73 2 0.0000000000000000e+00 -4.2081883991313390e+01 -1.9684887496350228e+01 -1.4156569263085444e+02 0 0 0
5912 169 3 0.0000000000000000e+00 -3.2043082578900147e+01 -1.6266594019716067e+01 -1.4615158984073230e+02 0 0 0
1507 44 2 0.0000000000000000e+00 -3.8313132121260480e+00 -1.1567011864708354e+01 -1.3915430527498577e+02 0 0 0
5549 159 4 0.0000000000000000e+00 -7.8430756543414617e+01 -1.8945155565533720e+00 -1.4668045965211334e+02 0 0 0
1376 40 1 0.0000000000000000e+00 -7.8203256068369271e+01 -6.7369499217048903e+00 -1.3403093918792197e+02 0 0 0
6234 179 3 0.0000000000000000e+00 -6.8620838714095413e+01 1.8082637710964260e+00 -1.4499003400733181e+02 0 0 0
6233 179 4 0.0000000000000000e+00 -6.3415756620976552e+01 -1.7361500113811235e+00 -1.3718437274101569e+02 0 0 0
1527 44 2 0.0000000000000000e+00 -4.4644884412771361e+01 -5.3190927035393507e+00 -1.3515983894991825e+02 0 0 0
5538 159 4 0.0000000000000000e+00 -1.9350464806493321e+01 -2.4475694072917147e+00 -1.3895231735415629e+02 0 0 0
5539 159 4 0.0000000000000000e+00 -2.8735676171659701e+01 6.6638367114366645e-02 -1.4023205189902637e+02 0 0 0
2223 64 1 0.0000000000000000e+00 -8.8882858963546365e+00 6.2436921275850787e-01 -1.4711585313403612e+02 0 0 0
5550 159 4 0.0000000000000000e+00 -8.2663840428095483e+01 6.2635349108366833e+00 -1.4364636678677192e+02 0 0 0
2549 73 2 0.0000000000000000e+00 -7.4622802651491142e+01 1.4574577964827320e+01 -1.3905394818136125e+02 0 0 0
5551 159 4 0.0000000000000000e+00 -7.9906098368692753e+01 4.7408218386067409e+00 -1.3374231994746555e+02 0 0 0
2532 73 2 0.0000000000000000e+00 -5.6413577172954533e+01 2.9157700666580793e+00 -1.4411483541959674e+02 0 0 0
2072 60 2 0.0000000000000000e+00 -6.2887373230457143e+01 1.5864813315620919e+01 -1.4133943388876963e+02 0 0 0
2533 73 2 0.0000000000000000e+00 -4.9557416087874707e+01 9.4859353260331556e+00 -1.4115007981199304e+02 0 0 0
4934 141 4 0.0000000000000000e+00 -9.1636026072450477e+01 2.3537404793199187e+01 -1.4192690474897063e+02 0 0 0
4933 141 4 0.0000000000000000e+00 -8.3622320165904014e+01 2.8007903725349212e+01 -1.4491540776576767e+02 0 0 0
3741 107 4 0.0000000000000000e+00 -7.3313362875011507e+01 2.6754992857013537e+01 -1.4045773343148241e+02 0 0 0
3740 107 4 0.0000000000000000e+00 -8.2215948679555424e+01 2.3030293894614388e+01 -1.3663777990579266e+02 0 0 0
2071 60 2 0.0000000000000000e+00 -6.3727293766263038e+01 2.2064745782570302e+01 -1.3409809965345684e+02 0 0 0
2535 73 2 0.0000000000000000e+00 -5.0896103820272103e+01 2.5042796723740388e+01 -1.4609295633985909e+02 0 0 0
2534 73 2 0.0000000000000000e+00 -4.5635425853203017e+01 1.8614604846439281e+01 -1.4068381846992972e+02 0 0 0
2924 84 2 0.0000000000000000e+00 -5.3528604992582267e+01 2.7888184776068162e+01 -1.3368189698592639e+02 0 0 0
3634 104 4 0.0000000000000000e+00 -1.6646580107635710e+01 1.6621580098109902e+01 -1.4143945392638022e+02 0 0 0
3633 104 4 0.0000000000000000e+00 -1.7926251284958443e+01 2.5690103461793726e+01 -1.3820513571450903e+02 0 0 0
2214 64 2 0.0000000000000000e+00 -8.0274643036759858e+00 2.1323955587384187e+01 -1.3779517183839312e+02 0 0 0
2939 84 2 0.0000000000000000e+00 -1.1132465771682904e+02 3.1159799574558509e+01 -1.3494977054458786e+02 0 0 0
2940 84 2 0.0000000000000000e+00 -1.1437830505260875e+02 3.6244274351408372e+01 -1.4263264182244956e+02 0 0 0
1741 50 2 0.0000000000000000e+00 -9.6653570533178510e+01 3.1752564569021416e+01 -1.3425805296519030e+02 0 0 0
1740 50 1 0.0000000000000000e+00 -9.1385583919703421e+01 3.6710299575851991e+01 -1.4104949089563374e+02 0 0 0
4932 141 3 0.0000000000000000e+00 -8.0313188590365741e+01 3.3290486303356580e+01 -1.3694106864896750e+02 0 0 0
4931 141 4 0.0000000000000000e+00 -7.5891666889758838e+01 4.1443067757329175e+01 -1.3892434692554016e+02 0 0 0
3743 107 4 0.0000000000000000e+00 -6.6404941262460582e+01 3.7230643301193901e+01 -1.4558876221230565e+02 0 0 0
2923 84 1 0.0000000000000000e+00 -5.8817705297101178e+01 3.0158030208799733e+01 -1.4261100478519214e+02 0 0 0
1531 44 2 0.0000000000000000e+00 -4.2569212145773541e+01 3.2742326081488990e+01 -1.3439089643592490e+02 0 0 0
1532 44 2 0.0000000000000000e+00 -3.4257603403915219e+01 3.6783180701803381e+01 -1.3724199018618725e+02 0 0 0
1533 44 2 0.0000000000000000e+00 -2.6047969352787938e+01 3.5193509653442050e+01 -1.4362077621399382e+02 0 0 0
1535 44 2 0.0000000000000000e+00 -1.0231490955112346e+01 3.0386638571790112e+01 -1.4615177726872687e+02 0 0 0
3678 106 4 0.0000000000000000e+00 -4.8921758190078179e+01 -6.0822135092618439e+01 -1.2227356650052495e+02 0 0 0
2819 81 2 0.0000000000000000e+00 -7.3603483358407216e+00 -5.5873156437641114e+01 -1.2485088164371666e+02 0 0 0
1522 44 2 0.0000000000000000e+00 -6.2102949951293510e+01 -4.9569771620024788e+01 -1.2619210889073977e+02 0 0 0
1523 44 1 0.0000000000000000e+00 -5.7826998758158709e+01 -4.1164694118015497e+01 -1.2874730847447833e+02 0 0 0
1517 44 2 0.0000000000000000e+00 -4.8042305456330723e+01 -4.1760139209910221e+01 -1.2315599787785102e+02 0 0 0
6326 181 4 0.0000000000000000e+00 -1.1494172495581347e+01 -3.8779164900140408e+01 -1.3164231685046903e+02 0 0 0
5526 158 4 0.0000000000000000e+00 -6.2543393664280117e+01 -3.1932213458026549e+01 -1.2414382086569996e+02 0 0 0
1524 44 2 0.0000000000000000e+00 -5.6839366917820698e+01 -3.1981397495147277e+01 -1.3265020529754324e+02 0 0 0
1518 44 2 0.0000000000000000e+00 -4.7052688794137175e+01 -3.2368933924126154e+01 -1.2500648765936614e+02 0 0 0
2526 73 2 0.0000000000000000e+00 -3.8175757889020389e+01 -2.5570160454869864e+01 -1.3365879219012982e+02 0 0 0
2525 73 2 0.0000000000000000e+00 -3.5990190915267590e+01 -3.3687976870282071e+01 -1.2771522698363862e+02 0 0 0
6327 181 4 0.0000000000000000e+00 -1.8916804191956778e+01 -3.2439062785755517e+01 -1.2995255829777830e+02 0 0 0
6328 181 4 0.0000000000000000e+00 -2.7006019060047091e+01 -2.7105236710718756e+01 -1.2761313084303713e+02 0 0 0
5525 158 4 0.0000000000000000e+00 -5.9334738305748509e+01 -2.3220701004272428e+01 -1.2365369069010191e+02 0 0 0
5524 158 4 0.0000000000000000e+00 -5.7973018835161959e+01 -1.4551652174425527e+01 -1.2014806348962809e+02 0 0 0
6329 181 4 0.0000000000000000e+00 -3.2363605345779362e+01 -1.9645395034425849e+01 -1.2498963615177639e+02 0 0 0
1509 44 1 0.0000000000000000e+00 -1.2234587822628665e+01 -2.1791748039941744e+01 -1.2512391045793005e+02 0 0 0
1508 44 2 0.0000000000000000e+00 -8.2534400388475877e+00 -1.4732092499125669e+01 -1.3086522744876913e+02 0 0 0
1377 40 2 0.0000000000000000e+00 -8.7429284546433919e+01 -3.1144171065632853e+00 -1.3125414710279190e+02 0 0 0
1378 40 2 0.0000000000000000e+00 -9.1640270243887841e+01 -4.1421846883338542e+00 -1.2224016895136606e+02 0 0 0
5552 159 4 0.0000000000000000e+00 -7.5287622338436179e+01 2.5342270229811681e+00 -1.2614948267310146e+02 0 0 0
5553 159 4 0.0000000000000000e+00 -6.6802054018717669e+01 2.4517562082500683e+00 -1.2105609619627957e+02 0 0 0
6232 179 4 0.0000000000000000e+00 -5.5638293573588292e+01 -2.5420091493581052e+00 -1.3131723878218423e+02 0 0 0
6231 179 4 0.0000000000000000e+00 -5.0141553790671779e+01 -1.5993035641708018e+00 -1.2320867886767236e+02 0 0 0
5112 147 4 0.0000000000000000e+00 -2.7489666874476526e+01 2.8859913568500621e+00 -1.2091203694394925e+02 0 0 0
2225 64 2 0.0000000000000000e+00 -4.6898526847754729e+00 2.4931054830510098e+00 -1.3200097472027733e+02 0 0 0
3735 107 3 0.0000000000000000e+00 -1.1163372772711838e+02 1.1139278365689931e+01 -1.2144386030193363e+02 0 0 0
2548 73 2 0.0000000000000000e+00 -6.7773482193575759e+01 1.0911323965470265e+01 -1.3312683731600947e+02 0 0 0
2547 73 2 0.0000000000000000e+00 -5.9726206234815237e+01 9.7068549405548303e+00 -1.2706185966510959e+02 0 0 0
1529 44 2 0.0000000000000000e+00 -4.4724401555506184e+01 1.3982758046892306e+01 -1.3210741010382276e+02 0 0 0
2546 73 2 0.0000000000000000e+00 -5.1001473716481684e+01 1.3044758042952605e+01 -1.2315042154240976e+02 0 0 0
1528 44 2 0.0000000000000000e+00 -4.2690875609181823e+01 4.4581293632362211e+00 -1.3309131658410331e+02 0 0 0
5111 147 4 0.0000000000000000e+00 -3.5378236528422008e+01 3.4075060340218792e+00 -1.2656915586185944e+02 0 0 0
5535 159 4 0.0000000000000000e+00 -3.1550241445390729e+01 1.5526377167876300e+01 -1.2879894293649289e+02 0 0 0
2545 73 1 0.0000000000000000e+00 -4.1598000800769825e+01 1.3072469029684209e+01 -1.2051191330746921e+02 0 0 0
5536 159 4 0.0000000000000000e+00 -2.1711469169340010e+01 1.2691997409034277e+01 -1.2787914848624997e+02 0 0 0
5537 159 4 0.0000000000000000e+00 -1.7375787214287726e+01 5.5138912938037477e+00 -1.3351659158449556e+02 0 0 0
1629 47 2 0.0000000000000000e+00 -6.1854820251914280e+00 1.3430436979099383e+01 -1.2248436865729971e+02 0 0 0
2938 84 2 0.0000000000000000e+00 -1.0781161409967150e+02 2.5293176243433599e+01 -1.2772158560707352e+02 0 0 0
3739 107 4 0.0000000000000000e+00 -8.6106694034410125e+01 2.3282242543150499e+01 -1.2750284655077444e+02 0 0 0
2550 73 2 0.0000000000000000e+00 -7.6478452279551064e+01 1.8322043118342741e+01 -1.2995401834415128e+02 0 0 0
2070 60 2 0.0000000000000000e+00 -7.0247518116809928e+01 2.8941844132763787e+01 -1.2948381512796962e+02 0 0 0
2551 73 2 0.0000000000000000e+00 -7.6842310739007857e+01 1.9945415750712392e+01 -1.2042267847197068e+02 0 0 0
1530 44 1 0.0000000000000000e+00 -4.5748399201478506e+01 2.3572755880443140e+01 -1.3116953457375521e+02 0 0 0
2925 84 2 0.0000000000000000e+00 -5.5767960063647735e+01 2.3196561525781572e+01 -1.2538589845445549e+02 0 0 0
2544 73 2 0.0000000000000000e+00 -4.3177955456019923e+01 2.2272706370975911e+01 -1.2172888347690015e+02 0 0 0
5534 159 3 0.0000000000000000e+00 -3.4333371678949504e+01 2.5877176035965242e+01 -1.3040582706639177e+02 0 0 0
2212 64 2 0.0000000000000000e+00 -2.0419322505029172e+01 2.1442498574579520e+01 -1.2203439760094881e+02 0 0 0
2213 64 2 0.0000000000000000e+00 -1.3517648506294307e+01 1.9863792205186680e+01 -1.2934948536604523e+02 0 0 0
5080 146 4 0.0000000000000000e+00 -8.6714183667504532e+00 2.9091759636963108e+01 -1.2868503631164674e+02 0 0 0
6875 197 4 0.0000000000000000e+00 -1.1406911929314096e+02 4.0363403916633963e+01 -1.2173630708414794e+02 0 0 0
1742 50 2 0.0000000000000000e+00 -9.8377036697053740e+01 3.4567472125550324e+01 -1.2486721793453742e+02 0 0 0
6876 197 4 0.0000000000000000e+00 -1.0783247037085775e+02 3.8888077516475391e+01 -1.2898152284866038e+02 0 0 0
6877 197 4 0.0000000000000000e+00 -9.8302312663019833e+01 4.2284859758511885e+01 -1.3068790239137795e+02 0 0 0
932 27 2 0.0000000000000000e+00 -8.8733380673874478e+01 3.8746461140582817e+01 -1.2763692535227055e+02 0 0 0
931 27 2 0.0000000000000000e+00 -8.3275099609217861e+01 3.1949159463962445e+01 -1.2233864064827158e+02 0 0 0
2069 60 1 0.0000000000000000e+00 -7.5519901620284202e+01 3.7654020306859948e+01 -1.2784655994935018e+02 0 0 0
6294 180 4 0.0000000000000000e+00 -6.2738806545535297e+01 3.8820668290411525e+01 -1.2885647896508090e+02 0 0 0
6293 180 4 0.0000000000000000e+00 -6.5880184973969662e+01 4.3455260358654762e+01 -1.2079437953285293e+02 0 0 0
2543 73 2 0.0000000000000000e+00 -4.8555895448632882e+01 3.0856076188213915e+01 -1.2144972955950732e+02 0 0 0
2542 73 2 0.0000000000000000e+00 -4.3613523270375957e+01 3.9379864213552160e+01 -1.2196309489044891e+02 0 0 0
5533 159 4 0.0000000000000000e+00 -3.4188469178086073e+01 3.4861767756307323e+01 -1.2615637166481950e+02 0 0 0
3632 104 4 0.0000000000000000e+00 -1.8665451796905238e+01 3.3651907663386737e+01 -1.3219062960429287e+02 0 0 0
3631 104 4 0.0000000000000000e+00 -1.6428714604149523e+01 4.0284370891023840e+01 -1.2502832756546206e+02 0 0 0
3676 106 4 0.0000000000000000e+00 -4.3734629120415669e+01 -6.7460490083970200e+01 -1.0685142328152062e+02 0 0 0
2822 81 2 0.0000000000000000e+00 -8.3379554763429642e+00 -7.6795128161181822e+01 -1.0770105522214173e+02 0 0 0
2821 81 2 0.0000000000000000e+00 -4.0280316396411324e+00 -6.8766129360966232e+01 -1.1062404309007164e+02 0 0 0
5530 158 4 0.0000000000000000e+00 -6.0732200372661296e+01 -6.4534211443859206e+01 -1.0871209663902465e+02 0 0 0
5529 158 4 0.0000000000000000e+00 -6.1621461911329135e+01 -5.4848826155342444e+01 -1.0709434464055681e+02 0 0 0
3679 106 3 0.0000000000000000e+00 -5.3223941131232621e+01 -5.8416293801965722e+01 -1.1322139770427300e+02 0 0 0
6334 181 4 0.0000000000000000e+00 -4.3344910054445315e+01 -5.2426437415672069e+01 -1.0714165142935866e+02 0 0 0
3677 106 4 0.0000000000000000e+00 -4.2434263517164219e+01 -6.1057697194037694e+01 -1.1442087987271660e+02 0 0 0
1514 44 2 0.0000000000000000e+00 -3.1813622127350712e+01 -5.7186177958343315e+01 -1.1567365511503540e+02 0 0 0
1513 44 2 0.0000000000000000e+00 -2.2755994362506939e+01 -5.5269827466822171e+01 -1.1745212590555029e+02 0 0 0
2820 81 2 0.0000000000000000e+00 -8.4024235659632502e+00 -6.2448901577957450e+01 -1.1715584456060287e+02 0 0 0
5528 158 4 0.0000000000000000e+00 -6.1902708607537889e+01 -4.6975500300334851e+01 -1.1260314284042728e+02 0 0 0
803 23 2 0.0000000000000000e+00 -5.7005957416720406e+01 -3.9008007242879245e+01 -1.0805649138459250e+02 0 0 0
5527 158 3 0.0000000000000000e+00 -6.4302741712423284e+01 -4.0349799725072806e+01 -1.1946048704009891e+02 0 0 0
1516 44 1 0.0000000000000000e+00 -4.7884849884834310e+01 -4.9879096724397812e+01 -1.1767192072603176e+02 0 0 0
1515 44 2 0.0000000000000000e+00 -3.8333487118082360e+01 -4.8869814286698372e+01 -1.1644161444688508e+02 0 0 0
6333 181 4 0.0000000000000000e+00 -3.9577032064800299e+01 -4.3418779764013195e+01 -1.0737335577828702e+02 0 0 0
1512 44 2 0.0000000000000000e+00 -2.0934658593223091e+01 -4.5924577601759360e+01 -1.1945792845507439e+02 0 0 0
1894 55 1 0.0000000000000000e+00 -6.3472928774238454e+01 -3.0304223030893713e+01 -1.0783696556954870e+02 0 0 0
804 23 2 0.0000000000000000e+00 -5.1988730406075113e+01 -3.1284348347251523e+01 -1.1085174311729347e+02 0 0 0
6332 181 3 0.0000000000000000e+00 -4.3953132250357328e+01 -3.6518906334290939e+01 -1.1281684986716245e+02 0 0 0
805 23 2 0.0000000000000000e+00 -5.1427176308258112e+01 -2.4342508793980112e+01 -1.1740967792970798e+02 0 0 0
6331 181 4 0.0000000000000000e+00 -4.1822914215800722e+01 -2.7248446741506076e+01 -1.1193028718317908e+02 0 0 0
2523 73 2 0.0000000000000000e+00 -3.3243458017782011e+01 -3.0493957848083603e+01 -1.0818850849090903e+02 0 0 0
2524 73 1 0.0000000000000000e+00 -3.5132771256815829e+01 -3.1553338970512687e+01 -1.1806617291653829e+02 0 0 0
1511 44 2 0.0000000000000000e+00 -2.1046453565304994e+01 -3.6561359789067204e+01 -1.1681008605042922e+02 0 0 0
1510 44 2 0.0000000000000000e+00 -1.9678401810594476e+01 -2.6774915457548779e+01 -1.1994116168762537e+02 0 0 0
2555 73 2 0.0000000000000000e+00 -7.8733034153657243e+01 -1.3370154944136909e+01 -1.1172859927034939e+02 0 0 0
5521 158 4 0.0000000000000000e+00 -6.9927706661205320e+01 -1.8690821659157653e+01 -1.0852080248338437e+02 0 0 0
1893 55 2 0.0000000000000000e+00 -5.8112610915550086e+01 -2.2028326083684025e+01 -1.0754635186045620e+02 0 0 0
5522 158 4 0.0000000000000000e+00 -6.8442849156477251e+01 -1.0954855342330681e+01 -1.1454585151258149e+02 0 0 0
1892 55 2 0.0000000000000000e+00 -5.2265166249526445e+01 -1.4957707055048919e+01 -1.1059880114497568e+02 0 0 0
6330 181 4 0.0000000000000000e+00 -3.7912616455929843e+01 -1.9210338848369972e+01 -1.1697608353606429e+02 0 0 0
6537 187 4 0.0000000000000000e+00 -2.0581940957526147e+01 -1.8746616457958790e+01 -1.0684767448379777e+02 0 0 0
6535 187 3 0.0000000000000000e+00 -5.3148244826871656e+00 -1.6297724181100001e+01 -1.1859981336725711e+02 0 0 0
6536 187 4 0.0000000000000000e+00 -1.2750830184847144e+01 -2.0413575499264240e+01 -1.1377421893619031e+02 0 0 0
1379 40 2 0.0000000000000000e+00 -9.3720943080650784e+01 -7.8398023524849025e-01 -1.1308272366021507e+02 0 0 0
2554 73 2 0.0000000000000000e+00 -8.4945074513728201e+01 -6.1276266720686259e+00 -1.1482618470567667e+02 0 0 0
5523 158 4 0.0000000000000000e+00 -5.9978336251614500e+01 -5.5592956727089522e+00 -1.1640102530246956e+02 0 0 0
1891 55 2 0.0000000000000000e+00 -5.0104756688420359e+01 -5.2233602817783744e+00 -1.1382756679853122e+02 0 0 0
911 27 2 0.0000000000000000e+00 -2.9938748990455441e+01 -2.5252171980747535e+00 -1.0671045187564201e+02 0 0 0
912 27 2 0.0000000000000000e+00 -2.2343270123462251e+01 -7.0070340675608787e+00 -1.1157378660294835e+02 0 0 0
5114 147 3 0.0000000000000000e+00 -1.3074643064201679e+01 6.7533130204643665e-01 -1.0907771073700108e+02 0 0 0
913 27 2 0.0000000000000000e+00 -1.3507260760520916e+01 -7.6071835351650483e+00 -1.1705202359548119e+02 0 0 0
914 27 1 0.0000000000000000e+00 -4.6941920852769066e+00 -1.8890498787031931e+00 -1.1660697975670001e+02 0 0 0
3734 107 4 0.0000000000000000e+00 -1.2060836291963776e+02 1.5598685266372794e+01 -1.1966633804164657e+02 0 0 0
3736 107 4 0.0000000000000000e+00 -1.0126098107563843e+02 1.1289356872677883e+01 -1.1997532260193763e+02 0 0 0
3737 107 4 0.0000000000000000e+00 -9.1929668769124760e+01 8.4094591301604531e+00 -1.1968928981358980e+02 0 0 0
2553 73 2 0.0000000000000000e+00 -8.2082839194718431e+01 3.0782945941573150e+00 -1.1132499990667127e+02 0 0 0
2552 73 1 0.0000000000000000e+00 -7.9656996339480870e+01 1.1182440251356049e+01 -1.1656576285224871e+02 0 0 0
2928 84 2 0.0000000000000000e+00 -7.1374963950780696e+01 4.5775864257875831e+00 -1.1214802085620397e+02 0 0 0
5554 159 4 0.0000000000000000e+00 -5.7250997450796561e+01 5.4942141361179697e+00 -1.1916628677243733e+02 0 0 0
2927 84 2 0.0000000000000000e+00 -6.9173107251374304e+01 1.2956682162213294e+01 -1.1749043717152951e+02 0 0 0
928 27 1 0.0000000000000000e+00 -6.6423824204102459e+01 1.4976313388480404e+01 -1.0688381720183027e+02 0 0 0
927 27 2 0.0000000000000000e+00 -6.0759699336493362e+01 6.7657865304544247e+00 -1.0864464529774742e+02 0 0 0
5555 159 3 0.0000000000000000e+00 -4.8190119866450559e+01 5.7802587826012992e+00 -1.1483614869614530e+02 0 0 0
5556 159 4 0.0000000000000000e+00 -4.3390449525272608e+01 1.1104225739579697e+01 -1.0808876350406491e+02 0 0 0
5113 147 4 0.0000000000000000e+00 -1.8822470050904631e+01 4.1088686408761594e+00 -1.1618385654523256e+02 0 0 0
3733 107 4 0.0000000000000000e+00 -1.1686086458867051e+02 2.2764397142698993e+01 -1.1333049027227099e+02 0 0 0
2937 84 1 0.0000000000000000e+00 -1.0610572825675627e+02 2.0308557586731400e+01 -1.1950307328899083e+02 0 0 0
2936 84 2 0.0000000000000000e+00 -9.7866868446770098e+01 2.1255394122829529e+01 -1.1459910478832107e+02 0 0 0
3738 107 4 0.0000000000000000e+00 -8.7544085711134286e+01 1.7412868429510798e+01 -1.1980273145040528e+02 0 0 0
2935 84 2 0.0000000000000000e+00 -8.9728311228560344e+01 2.3871168341198995e+01 -1.0907307703879214e+02 0 0 0
2934 84 2 0.0000000000000000e+00 -8.1677605491566325e+01 2.9371156444145825e+01 -1.0832368374178019e+02 0 0 0
930 27 2 0.0000000000000000e+00 -7.4151857472172395e+01 2.9760640306306879e+01 -1.1728486835336169e+02 0 0 0
929 27 2 0.0000000000000000e+00 -7.1995462344104979e+01 2.1897874715693209e+01 -1.1066623514646444e+02 0 0 0
2926 84 2 0.0000000000000000e+00 -6.2007570337400267e+01 1.9448927977704763e+01 -1.1933258603639904e+02 0 0 0
3465 99 2 0.0000000000000000e+00 -5.4320417614437886e+01 1.8206246653062319e+01 -1.1338053104054083e+02 0 0 0
3464 99 2 0.0000000000000000e+00 -5.2675073175746910e+01 2.7640208007048933e+01 -1.0996693101038326e+02 0 0 0
5557 159 4 0.0000000000000000e+00 -4.0951353987288108e+01 2.1077675208299301e+01 -1.1024976410062150e+02 0 0 0