LAMMPS data file via write_data, version 5 Jun 2019, timestep = 500000000

7000 atoms
4 atom types
7279 bonds
3 bond types
6600 angles
2 angle types

-5.0000000000000000e+02 5.0000000000000000e+02 xlo xhi
-5.0000000000000000e+02 5.0000000000000000e+02 ylo yhi
-5.0000000000000000e+02 5.0000000000000000e+02 zlo zhi

Masses

1 1000
2 1000
3 1000
4 1000

Pair Coeffs # lj/cut

1 0.296 10
2 0.296 10
3 0.296 10
4 0.296 10

Angle Coeffs # cosine

1 2
2 2

Atoms # full

6259 179 4 0.0000000000000000e+00 -4.9927694433824676e+01 9.5034856475602396e+00 -1.6088966997761057e+02 0 0 0
6260 179 4 0.0000000000000000e+00 -4.1268295543439692e+01 1.3822392554798343e+01 -1.6240409762888959e+02 0 0 0
6334 181 4 0.0000000000000000e+00 -1.1202398659292437e+02 -1.5912848508245499e+01 -1.4700585561919181e+02 0 0 0
6335 181 4 0.0000000000000000e+00 -1.1055826877766683e+02 -1.7293355612980843e+01 -1.5623002623679974e+02 0 0 0
911 27 2 0.0000000000000000e+00 -1.3970662239733110e+02 -1.2733192346370039e+01 -1.4347557908729186e+02 0 0 0
912 27 2 0.0000000000000000e+00 -1.2981033923773290e+02 -1.1840003660812346e+01 -1.4479999927059612e+02 0 0 0
6257 179 4 0.0000000000000000e+00 -4.4979366109482143e+01 -1.5932844214086002e+00 -1.5014069798847012e+02 0 0 0
6318 181 3 0.0000000000000000e+00 -8.1513271856970391e+01 6.9490158762417904e+00 -1.4469087019995428e+02 0 0 0
6258 179 4 0.0000000000000000e+00 -5.2410385874652647e+01 1.1651677072561235e+00 -1.5654878403781251e+02 0 0 0
1619 47 2 0.0000000000000000e+00 -4.9115973203122188e+01 7.8930142136460599e+00 -1.4604109031982367e+02 0 0 0
1618 47 2 0.0000000000000000e+00 -5.2822541357774334e+01 -9.7217158045058971e-01 -1.4340556798211057e+02 0 0 0
5531 159 4 0.0000000000000000e+00 -1.3622113024711740e+02 2.5478360102591044e+01 -1.5434895846189377e+02 0 0 0
1612 47 2 0.0000000000000000e+00 -9.0237058538866748e+01 2.3824666423355325e+01 -1.4335151732371486e+02 0 0 0
6317 181 4 0.0000000000000000e+00 -7.8990295448706874e+01 1.6398494737057248e+01 -1.4401430119337584e+02 0 0 0
6316 181 4 0.0000000000000000e+00 -7.7694192291864169e+01 2.5444094482445699e+01 -1.4666945354443419e+02 0 0 0
1620 47 2 0.0000000000000000e+00 -4.3594197672676422e+01 1.6046914432008521e+01 -1.4815699251750434e+02 0 0 0
5532 159 4 0.0000000000000000e+00 -1.3302020790190639e+02 2.9406346483821956e+01 -1.4512867400244218e+02 0 0 0
6315 181 4 0.0000000000000000e+00 -7.0038675822302849e+01 3.1251285654681915e+01 -1.4624137694266949e+02 0 0 0
4730 136 4 0.0000000000000000e+00 -4.7821053139721812e+01 2.8006651023830788e+01 -1.4577910637798516e+02 0 0 0
6333 181 4 0.0000000000000000e+00 -1.1266920725913756e+02 -1.7432530554285620e+01 -1.3728849104846969e+02 0 0 0
6332 181 3 0.0000000000000000e+00 -1.1972593766612908e+02 -1.8122678988987502e+01 -1.2999818814592194e+02 0 0 0
2092 60 2 0.0000000000000000e+00 -4.1334959061276535e+01 -1.7544343418895615e+01 -1.2991234122914145e+02 0 0 0
913 27 2 0.0000000000000000e+00 -1.2144798939549759e+02 -9.0705497055427031e+00 -1.4015733820187714e+02 0 0 0
914 27 1 0.0000000000000000e+00 -1.1716778661945590e+02 -6.7651745770819929e+00 -1.3141901653477845e+02 0 0 0
6321 181 4 0.0000000000000000e+00 -9.8000619529818565e+01 -1.4179981054507593e+01 -1.3592346150461310e+02 0 0 0
6319 181 4 0.0000000000000000e+00 -8.5041484453142601e+01 -1.9268176630322393e+00 -1.4285492599338517e+02 0 0 0
6320 181 4 0.0000000000000000e+00 -8.9930812930402411e+01 -9.9195760209452857e+00 -1.3940916580015386e+02 0 0 0
2093 60 2 0.0000000000000000e+00 -4.9325809818312166e+01 -1.1398110113736326e+01 -1.2977244572985057e+02 0 0 0
2094 60 2 0.0000000000000000e+00 -4.8621906211041001e+01 -1.5715970920990303e+00 -1.3174836063624122e+02 0 0 0
1614 47 1 0.0000000000000000e+00 -8.7730774193351806e+01 8.0461087187409586e+00 -1.3529009935759774e+02 0 0 0
1616 47 2 0.0000000000000000e+00 -6.8961290133042652e+01 1.0173258678461211e+01 -1.4044045779850174e+02 0 0 0
1615 47 2 0.0000000000000000e+00 -7.8136891005558553e+01 9.0413398478684694e+00 -1.3564061439026284e+02 0 0 0
1617 47 2 0.0000000000000000e+00 -6.1253049517425445e+01 4.0344410534492781e+00 -1.4184329478257979e+02 0 0 0
1368 40 2 0.0000000000000000e+00 -1.1680505692014265e+02 2.1909726345908233e+01 -1.3315257016615445e+02 0 0 0
1613 47 2 0.0000000000000000e+00 -9.0248883780641137e+01 1.4437842018812201e+01 -1.4297950145351294e+02 0 0 0
4731 136 4 0.0000000000000000e+00 -5.5480096117621585e+01 2.4072191631057649e+01 -1.4143140887700605e+02 0 0 0
4732 136 4 0.0000000000000000e+00 -4.8654032535564696e+01 1.6904883464348785e+01 -1.3793025165391285e+02 0 0 0
4733 136 4 0.0000000000000000e+00 -3.9956932938950558e+01 1.4734303795908641e+01 -1.3304050581697004e+02 0 0 0
6895 197 4 0.0000000000000000e+00 -1.5683677170160888e+02 3.7775422416207178e+01 -1.3366734653898243e+02 0 0 0
5533 159 4 0.0000000000000000e+00 -1.3444710408851699e+02 2.7063575249167464e+01 -1.3559822844681273e+02 0 0 0
1370 40 2 0.0000000000000000e+00 -1.2501291315990736e+02 3.8008613895364327e+01 -1.3066774982386164e+02 0 0 0
1369 40 1 0.0000000000000000e+00 -1.1994105163195364e+02 3.0914585421038733e+01 -1.3624748422726967e+02 0 0 0
1611 47 2 0.0000000000000000e+00 -9.0333827421130891e+01 3.3481190410490420e+01 -1.4085060038404200e+02 0 0 0
2074 60 2 0.0000000000000000e+00 -8.6062322167149858e+01 3.2431721252131226e+01 -1.3193177391281276e+02 0 0 0
2073 60 2 0.0000000000000000e+00 -7.8349651290423196e+01 3.4929699573929113e+01 -1.3728884409795282e+02 0 0 0
6314 181 4 0.0000000000000000e+00 -6.2789257095348667e+01 3.4021979211202243e+01 -1.4028673822513969e+02 0 0 0
6313 181 4 0.0000000000000000e+00 -5.7127499756780182e+01 3.5275542010744914e+01 -1.3209438362018844e+02 0 0 0
5117 147 4 0.0000000000000000e+00 -6.2598241257386427e+01 2.6728684548894378e+01 -1.3223460961648115e+02 0 0 0
2100 60 2 0.0000000000000000e+00 -4.6588448659223033e+01 2.8720285163768480e+01 -1.3606396101928905e+02 0 0 0
6331 181 4 0.0000000000000000e+00 -1.1453869799508787e+02 -1.8565120247687126e+01 -1.2138667762651920e+02 0 0 0
6322 181 4 0.0000000000000000e+00 -9.9747940656270231e+01 -1.9835792248389371e+01 -1.2791223901622065e+02 0 0 0
6323 181 4 0.0000000000000000e+00 -9.8002749962391093e+01 -2.2015274007269486e+01 -1.1897955228589024e+02 0 0 0
915 27 2 0.0000000000000000e+00 -1.1438740262877955e+02 -3.8453397620745098e+00 -1.2245109177952979e+02 0 0 0
2831 81 2 0.0000000000000000e+00 -9.9010192878904917e+01 -7.4343359391219845e+00 -1.1951893302734420e+02 0 0 0
2830 81 2 0.0000000000000000e+00 -8.9240234190576956e+01 -5.6485199330550264e+00 -1.2149793196410216e+02 0 0 0
6253 179 4 0.0000000000000000e+00 -4.3340753037027845e+01 -3.6466759466334997e+00 -1.2374377342984516e+02 0 0 0
1540 44 2 0.0000000000000000e+00 -1.2920377406243526e+02 5.3572547905272714e+00 -1.1925747742050615e+02 0 0 0
1366 40 2 0.0000000000000000e+00 -1.1115472543269451e+02 6.0153938193490815e+00 -1.2223643712525718e+02 0 0 0
2077 60 2 0.0000000000000000e+00 -9.2783020948285298e+01 9.4918045783876330e+00 -1.1844952814357994e+02 0 0 0
2095 60 2 0.0000000000000000e+00 -4.9119257092516477e+01 6.6626506429088224e+00 -1.2695827484030131e+02 0 0 0
1367 40 2 0.0000000000000000e+00 -1.1335401286381189e+02 1.5401375685227121e+01 -1.2581041506901531e+02 0 0 0
5330 153 4 0.0000000000000000e+00 -1.0193891640233032e+02 1.9493095211343991e+01 -1.1584895324875824e+02 0 0 0
2076 60 1 0.0000000000000000e+00 -9.0554448863740788e+01 1.8030065775490595e+01 -1.2332050737480894e+02 0 0 0
2075 60 2 0.0000000000000000e+00 -8.4673560477300143e+01 2.4391128622996295e+01 -1.2650619919410084e+02 0 0 0
5118 147 4 0.0000000000000000e+00 -5.7505863409092861e+01 1.9470654595377841e+01 -1.2882256339889750e+02 0 0 0
5119 147 4 0.0000000000000000e+00 -6.4447773045606823e+01 1.9055791574473556e+01 -1.2147976195623809e+02 0 0 0
2096 60 2 0.0000000000000000e+00 -4.3625029277437676e+01 1.3979369613203263e+01 -1.2260991350478733e+02 0 0 0
2097 60 1 0.0000000000000000e+00 -4.4552180409541997e+01 2.2595325722432960e+01 -1.1758941602878369e+02 0 0 0
3733 107 4 0.0000000000000000e+00 -1.4638479635432228e+02 3.4440544414720954e+01 -1.2544079490844285e+02 0 0 0
3734 107 4 0.0000000000000000e+00 -1.4487957235918120e+02 2.7565985269589451e+01 -1.1800400459699659e+02 0 0 0
5534 159 3 0.0000000000000000e+00 -1.2749081983225945e+02 2.8660235203547831e+01 -1.2851040558892646e+02 0 0 0
5535 159 4 0.0000000000000000e+00 -1.1901859218699671e+02 2.9619628474605520e+01 -1.2252084855785294e+02 0 0 0
5331 153 3 0.0000000000000000e+00 -9.8246068218607405e+01 2.5849081066380847e+01 -1.2348950490993492e+02 0 0 0
5332 153 4 0.0000000000000000e+00 -9.0353987266333007e+01 3.2950463960142692e+01 -1.2065670698685918e+02 0 0 0
5115 147 4 0.0000000000000000e+00 -7.0713222533852530e+01 3.8737336798273695e+01 -1.2645525785248282e+02 0 0 0
5116 147 4 0.0000000000000000e+00 -6.4650703050158342e+01 3.1518744428125654e+01 -1.2361614858755790e+02 0 0 0
6312 181 4 0.0000000000000000e+00 -5.3069571829290936e+01 3.5000318620041959e+01 -1.2193217724110158e+02 0 0 0
6330 181 4 0.0000000000000000e+00 -1.1359833538756499e+02 -1.7242231057531637e+01 -1.1149090239003382e+02 0 0 0
6329 181 4 0.0000000000000000e+00 -1.2027561347105765e+02 -1.8012861073003670e+01 -1.0337497860786894e+02 0 0 0
6325 181 3 0.0000000000000000e+00 -9.5874251563416578e+01 -1.7416863718784256e+01 -1.0465419334642027e+02 0 0 0
6324 181 4 0.0000000000000000e+00 -9.2285848526976224e+01 -1.4943182052197578e+01 -1.1395888285295486e+02 0 0 0
2089 60 2 0.0000000000000000e+00 -4.0674949141228694e+01 -2.0362245214286894e+01 -1.0616146143994767e+02 0 0 0
2088 60 2 0.0000000000000000e+00 -4.9725871665839662e+01 -1.6789057822609948e+01 -1.0335917852868111e+02 0 0 0
916 27 2 0.0000000000000000e+00 -1.1111841471026467e+02 -4.7018812094310958e+00 -1.1248852679491034e+02 0 0 0
2833 81 2 0.0000000000000000e+00 -1.0818901780479401e+02 -1.3497772401682344e+01 -1.0433659167134209e+02 0 0 0
917 27 2 0.0000000000000000e+00 -1.1586512374928419e+02 -3.5789947892408849e+00 -1.0420130534678380e+02 0 0 0
2832 81 1 0.0000000000000000e+00 -1.0241122244999539e+02 -1.3230188552640200e+01 -1.1251779821043066e+02 0 0 0
2083 60 1 0.0000000000000000e+00 -8.3739313126507270e+01 -1.2044494368794933e+01 -1.0266146535404748e+02 0 0 0
2084 60 2 0.0000000000000000e+00 -7.7364221161083762e+01 -7.3535008375876680e+00 -1.0765876517929205e+02 0 0 0
2085 60 2 0.0000000000000000e+00 -6.8066304492147438e+01 -8.8590748783060462e+00 -1.0372808938182934e+02 0 0 0
6251 179 4 0.0000000000000000e+00 -4.2373664785546580e+01 -8.6755053358828729e+00 -1.0704427657576412e+02 0 0 0
6252 179 4 0.0000000000000000e+00 -4.7895335966010236e+01 -4.9681368028754180e+00 -1.1460025835868011e+02 0 0 0
1538 44 2 0.0000000000000000e+00 -1.3802906142732542e+02 7.1525270986674991e+00 -1.1281582681648385e+02 0 0 0
1539 44 2 0.0000000000000000e+00 -1.3306535619329983e+02 -1.2294227690246899e+00 -1.1270329727525743e+02 0 0 0
2079 60 2 0.0000000000000000e+00 -1.0109747214079459e+02 -6.6468293240553344e-01 -1.0579192080642461e+02 0 0 0
2078 60 2 0.0000000000000000e+00 -9.8741287698755926e+01 7.1367096660210798e+00 -1.1074003851546415e+02 0 0 0
2829 81 2 0.0000000000000000e+00 -9.1744688572443053e+01 4.8067360458653996e-01 -1.1313688276619907e+02 0 0 0
2828 81 2 0.0000000000000000e+00 -8.8542261323192093e+01 2.3871071661262486e+00 -1.0402855003863374e+02 0 0 0
3735 107 3 0.0000000000000000e+00 -1.4040327024669458e+02 2.2631777744141502e+01 -1.1032732538945207e+02 0 0 0
1537 44 1 0.0000000000000000e+00 -1.4302572012976961e+02 1.2728155096688292e+01 -1.0616481785313215e+02 0 0 0
1536 44 2 0.0000000000000000e+00 -1.4594308764630694e+02 2.2146848987857791e+01 -1.0201283157286521e+02 0 0 0
3736 107 4 0.0000000000000000e+00 -1.3315254124598772e+02 2.0110414935878563e+01 -1.0399192448584348e+02 0 0 0
5328 153 4 0.0000000000000000e+00 -1.1618469948228831e+02 2.4517296527124035e+01 -1.0900890494162535e+02 0 0 0
5329 153 4 0.0000000000000000e+00 -1.1102282861706580e+02 1.6586312280160865e+01 -1.1218798920854115e+02 0 0 0
5538 159 4 0.0000000000000000e+00 -1.0636388987455700e+02 2.4061231183304351e+01 -1.0632040366663685e+02 0 0 0
5122 147 4 0.0000000000000000e+00 -8.2396242696334895e+01 2.2585299830456311e+01 -1.0214356207265772e+02 0 0 0
5121 147 3 0.0000000000000000e+00 -7.6713103067868275e+01 2.4799116228477757e+01 -1.0980015294219575e+02 0 0 0
5120 147 4 0.0000000000000000e+00 -7.0863402353365103e+01 1.7799419774875368e+01 -1.1314281067076251e+02 0 0 0
1379 40 2 0.0000000000000000e+00 -1.5434550040345650e+02 2.7736732968129040e+01 -1.0617822999170325e+02 0 0 0
1535 44 2 0.0000000000000000e+00 -1.4381730825689132e+02 3.1113926469924113e+01 -1.0505810576508294e+02 0 0 0
2907 84 2 0.0000000000000000e+00 -1.3708048463821746e+02 3.4578454379092037e+01 -1.1324670786399977e+02 0 0 0
2906 84 2 0.0000000000000000e+00 -1.2963208613749336e+02 2.8289902629045258e+01 -1.1460189088557807e+02 0 0 0
1373 40 2 0.0000000000000000e+00 -1.2662867417346449e+02 3.8088190950027183e+01 -1.0671798182033061e+02 0 0 0
5536 159 4 0.0000000000000000e+00 -1.1639378017453666e+02 3.5298796522486434e+01 -1.1425689118303629e+02 0 0 0
5537 159 4 0.0000000000000000e+00 -1.0844615331814039e+02 2.9222179002745250e+01 -1.1493392655473630e+02 0 0 0
5333 153 4 0.0000000000000000e+00 -8.3829233456507097e+01 3.3949434781523152e+01 -1.1403297173537061e+02 0 0 0
5334 153 4 0.0000000000000000e+00 -8.3502232392993434e+01 3.5618570916384456e+01 -1.0358839849862267e+02 0 0 0
211 7 2 0.0000000000000000e+00 -6.0144929021158426e+01 3.0745322698474183e+01 -1.1018193524017400e+02 0 0 0
6311 181 3 0.0000000000000000e+00 -4.8104253061119273e+01 3.3135412886302710e+01 -1.1359837887995079e+02 0 0 0
6310 181 4 0.0000000000000000e+00 -4.4796002289774513e+01 3.5459475111634056e+01 -1.0453174483020274e+02 0 0 0
4798 138 4 0.0000000000000000e+00 -4.5689402874538956e+01 2.6137741189832784e+01 -1.0401614599352854e+02 0 0 0
2236 64 2 0.0000000000000000e+00 -5.9466410864756014e+01 -5.4222056886118459e+01 -9.0437406593593863e+01 0 0 0
2235 64 2 0.0000000000000000e+00 -5.4941195412814203e+01 -4.6204893822719079e+01 -9.4086638700614955e+01 0 0 0
262 8 2 0.0000000000000000e+00 -7.3980984433290701e+01 -3.4503968918706668e+01 -9.4401456370557682e+01 0 0 0
4185 120 4 0.0000000000000000e+00 -6.4526639384069213e+01 -3.2564672007836393e+01 -8.9023365936810706e+01 0 0 0
2234 64 2 0.0000000000000000e+00 -4.8717699258777081e+01 -3.8385919416582190e+01 -9.3700571847023241e+01 0 0 0
2233 64 2 0.0000000000000000e+00 -4.9504425403708879e+01 -2.8609587375854307e+01 -9.1697685407791965e+01 0 0 0
6328 181 4 0.0000000000000000e+00 -1.1173817766415812e+02 -2.3332164073738198e+01 -1.0117620792821332e+02 0 0 0
6327 181 4 0.0000000000000000e+00 -1.0615974643853107e+02 -2.7172662876340596e+01 -9.3984182976708723e+01 0 0 0
6326 181 4 0.0000000000000000e+00 -9.7864166909063826e+01 -2.3151942961845105e+01 -9.7451529758831967e+01 0 0 0
5522 158 4 0.0000000000000000e+00 -8.7407666264882494e+01 -1.5274363867876998e+01 -8.9313281267451330e+01 0 0 0
261 8 2 0.0000000000000000e+00 -7.9611042614796204e+01 -2.6637993759733146e+01 -9.2489595709661785e+01 0 0 0
2087 60 2 0.0000000000000000e+00 -5.4290735303155159e+01 -1.4950556073194909e+01 -9.4429332085297375e+01 0 0 0
2232 64 2 0.0000000000000000e+00 -4.4468415125292921e+01 -2.0449732287987672e+01 -9.1023778079820090e+01 0 0 0
2834 81 2 0.0000000000000000e+00 -1.1215682317010567e+02 -1.3996808649937554e+01 -9.5494517132826687e+01 0 0 0
2080 60 2 0.0000000000000000e+00 -1.0390808776739613e+02 -3.9910491806134440e+00 -9.7057829776181705e+01 0 0 0
2081 60 2 0.0000000000000000e+00 -9.7629845343276401e+01 -6.1584325668030919e+00 -9.0395158418706330e+01 0 0 0
2082 60 2 0.0000000000000000e+00 -9.1351003640480272e+01 -7.9259470670717524e+00 -9.7456302220345862e+01 0 0 0
5521 158 4 0.0000000000000000e+00 -8.0494958969446742e+01 -8.2951134722647666e+00 -9.1388589914769639e+01 0 0 0
2086 60 2 0.0000000000000000e+00 -6.1875584371572828e+01 -8.1223930702357858e+00 -9.5191189838081669e+01 0 0 0
6250 179 4 0.0000000000000000e+00 -4.0516612744032621e+01 -1.3378200881640170e+01 -9.8406169580899970e+01 0 0 0
5321 153 4 0.0000000000000000e+00 -1.4076410357124334e+02 6.7416957731113927e+00 -9.1303178435674482e+01 0 0 0
3738 107 4 0.0000000000000000e+00 -1.2668158255078231e+02 7.1293193658654603e+00 -9.0565721157495616e+01 0 0 0
918 27 2 0.0000000000000000e+00 -1.2091782583084735e+02 4.2905590523701748e-01 -9.6911376448108555e+01 0 0 0
5529 158 4 0.0000000000000000e+00 -1.0435273513444514e+02 1.0278510504407471e+01 -8.8683868055397383e+01 0 0 0
2827 81 2 0.0000000000000000e+00 -8.4745570832070513e+01 7.0425154200734790e+00 -9.6061372501378941e+01 0 0 0
2823 81 2 0.0000000000000000e+00 -5.6238981347220076e+01 1.1611843492458821e+01 -1.0035003731821259e+02 0 0 0
2822 81 2 0.0000000000000000e+00 -4.6703975974468243e+01 8.3718514074933719e+00 -9.9269983918958189e+01 0 0 0
1378 40 2 0.0000000000000000e+00 -1.5715670694718025e+02 2.0936156315748857e+01 -9.8693834894473326e+01 0 0 0
1377 40 2 0.0000000000000000e+00 -1.5011232940860100e+02 1.8159132669030633e+01 -9.2724434188973973e+01 0 0 0
1376 40 1 0.0000000000000000e+00 -1.4272969434823605e+02 2.5166792279486064e+01 -9.1392224911892598e+01 0 0 0
3737 107 4 0.0000000000000000e+00 -1.2999423927990387e+02 1.3325345478814681e+01 -9.6980160368246516e+01 0 0 0
1375 40 2 0.0000000000000000e+00 -1.3332082397964800e+02 2.4171665823090425e+01 -9.4491695442840879e+01 0 0 0
5539 159 4 0.0000000000000000e+00 -1.0934773675526668e+02 2.4248884602477141e+01 -9.6931292758532578e+01 0 0 0
5540 159 4 0.0000000000000000e+00 -1.1486048179351818e+02 1.8351012240984261e+01 -9.0940576476474860e+01 0 0 0
5530 158 4 0.0000000000000000e+00 -1.0356846969694877e+02 1.5599347989963334e+01 -9.7430849459026433e+01 0 0 0
1521 44 2 0.0000000000000000e+00 -9.5999609283591184e+01 2.5375540035463533e+01 -9.7650178696239479e+01 0 0 0
1520 44 2 0.0000000000000000e+00 -9.0785476406046456e+01 1.6722354608333021e+01 -9.5813738281111441e+01 0 0 0
5123 147 4 0.0000000000000000e+00 -8.4847880908701057e+01 2.4219105980213712e+01 -9.2584557861741303e+01 0 0 0
2826 81 2 0.0000000000000000e+00 -7.9930374850989864e+01 1.5593023269906906e+01 -9.5987586660425222e+01 0 0 0
2825 81 1 0.0000000000000000e+00 -7.2346892243999221e+01 2.1668756893255519e+01 -9.9595710670725794e+01 0 0 0
2824 81 2 0.0000000000000000e+00 -6.3885455864533355e+01 1.8870118005529214e+01 -1.0006273295383809e+02 0 0 0
4796 138 4 0.0000000000000000e+00 -5.2731649088859719e+01 2.1985099084399113e+01 -9.5994013630627435e+01 0 0 0
1380 40 2 0.0000000000000000e+00 -1.5501728238649770e+02 3.6358715817328701e+01 -1.0078612391850004e+02 0 0 0
5326 153 4 0.0000000000000000e+00 -1.2339610973410417e+02 2.7213189890588360e+01 -9.1673616010295191e+01 0 0 0
1374 40 2 0.0000000000000000e+00 -1.3177285905637996e+02 3.1342752746120684e+01 -1.0130592615148640e+02 0 0 0
5327 153 4 0.0000000000000000e+00 -1.2035825379167656e+02 2.8610000659677269e+01 -1.0112198867475000e+02 0 0 0
924 27 2 0.0000000000000000e+00 -1.1043740706725940e+02 3.7019152538339199e+01 -9.5901926522968907e+01 0 0 0
923 27 2 0.0000000000000000e+00 -1.0566026781811161e+02 3.0517324893352779e+01 -9.0128893415226088e+01 0 0 0
1522 44 2 0.0000000000000000e+00 -9.7375821141614395e+01 3.4997816712855084e+01 -1.0001549108898388e+02 0 0 0
5335 153 4 0.0000000000000000e+00 -8.4865448253187154e+01 3.5679038895708096e+01 -9.3879297028300670e+01 0 0 0
6532 187 4 0.0000000000000000e+00 -6.7197089562630040e+01 3.1046476539213096e+01 -1.0046978969564169e+02 0 0 0
6533 187 4 0.0000000000000000e+00 -7.6167984800057212e+01 3.2865367218811848e+01 -9.5954123584387816e+01 0 0 0
220 7 2 0.0000000000000000e+00 -6.7803486890360929e+01 3.4360743662828177e+01 -9.0340298696389354e+01 0 0 0
4797 138 4 0.0000000000000000e+00 -5.4857322551129748e+01 3.0302677995630710e+01 -1.0059055483414507e+02 0 0 0
221 7 1 0.0000000000000000e+00 -5.9675755558351909e+01 2.8041574829817936e+01 -9.2099958298244331e+01 0 0 0
4853 139 4 0.0000000000000000e+00 -8.9115286106967773e+01 -7.2088135714892985e+01 -7.5391724910558167e+01 0 0 0
4852 139 4 0.0000000000000000e+00 -8.4002115170461337e+01 -7.1666680477602824e+01 -8.3709190016853000e+01 0 0 0
4851 139 4 0.0000000000000000e+00 -7.6731086021607524e+01 -6.5398589379018333e+01 -8.6532877267239328e+01 0 0 0
4850 139 4 0.0000000000000000e+00 -6.9498871482349330e+01 -6.1566665218096894e+01 -8.0206444291820603e+01 0 0 0
2237 64 1 0.0000000000000000e+00 -5.4292484270291304e+01 -5.6718792137100451e+01 -8.2422478109983317e+01 0 0 0
4849 139 4 0.0000000000000000e+00 -6.0838913526272918e+01 -5.7870470572407150e+01 -7.6107996925683878e+01 0 0 0
4183 120 3 0.0000000000000000e+00 -7.2838078505761445e+01 -4.7123902092984785e+01 -8.1877449595997646e+01 0 0 0
3046 88 2 0.0000000000000000e+00 -7.9171753723110697e+01 -4.7893464073032476e+01 -7.4547200701425893e+01 0 0 0
4182 120 4 0.0000000000000000e+00 -7.1689897582915734e+01 -5.3608965816075710e+01 -7.5253912479403951e+01 0 0 0
2238 64 2 0.0000000000000000e+00 -5.4097294001379858e+01 -4.7120651693365055e+01 -7.9862641846860512e+01 0 0 0
4178 120 4 0.0000000000000000e+00 -9.1424681826664070e+01 -4.1058251118114370e+01 -7.5171593673943747e+01 0 0 0
4177 120 4 0.0000000000000000e+00 -8.5871660513367814e+01 -3.2724317578217821e+01 -7.6367989937713332e+01 0 0 0
263 8 1 0.0000000000000000e+00 -7.9303229922171994e+01 -3.9014141250686215e+01 -8.7609384494728943e+01 0 0 0
264 8 2 0.0000000000000000e+00 -7.6671331308236020e+01 -3.4317673969195830e+01 -7.9167578530937618e+01 0 0 0
4184 120 4 0.0000000000000000e+00 -6.4847629735046908e+01 -4.0900664474117029e+01 -8.2742076450817819e+01 0 0 0
2239 64 2 0.0000000000000000e+00 -5.0041658561828541e+01 -3.8681737068751332e+01 -7.5376912561683270e+01 0 0 0
4845 139 4 0.0000000000000000e+00 -4.1390606523590577e+01 -3.3968305088994676e+01 -7.8450019626180620e+01 0 0 0
5524 158 4 0.0000000000000000e+00 -1.0492533684903984e+02 -1.6910584167048398e+01 -8.0693370994872311e+01 0 0 0
5523 158 4 0.0000000000000000e+00 -9.5718950922624970e+01 -1.6065278394364281e+01 -8.4205864320381750e+01 0 0 0
260 8 2 0.0000000000000000e+00 -8.1793961546721803e+01 -2.2122970508213093e+01 -8.4142633281724073e+01 0 0 0
259 8 2 0.0000000000000000e+00 -8.6358676571041954e+01 -1.9716779264458005e+01 -7.5669529661725576e+01 0 0 0
265 8 2 0.0000000000000000e+00 -7.1716180826860239e+01 -2.5990324784654572e+01 -8.2112754460972297e+01 0 0 0
266 8 2 0.0000000000000000e+00 -7.2042539785562241e+01 -1.6147615509466096e+01 -8.1067081467590043e+01 0 0 0
4186 120 4 0.0000000000000000e+00 -6.2587763365860397e+01 -2.2742678306702810e+01 -8.6900665219122970e+01 0 0 0
4187 120 4 0.0000000000000000e+00 -5.7801810782502052e+01 -1.7677374967078610e+01 -7.9241156270440044e+01 0 0 0
2835 81 2 0.0000000000000000e+00 -1.1733454673594643e+02 -1.2980017937215587e+01 -8.7596228218547495e+01 0 0 0
5527 158 3 0.0000000000000000e+00 -1.0739708715123545e+02 -4.7114049061995358e+00 -7.8254760939222734e+01 0 0 0
1517 44 2 0.0000000000000000e+00 -9.5481692905709735e+01 -3.3326994114164727e+00 -7.8977987798514874e+01 0 0 0
5520 158 3 0.0000000000000000e+00 -8.1663038934014452e+01 -2.2504913628711631e+00 -8.3940953854632582e+01 0 0 0
5519 158 4 0.0000000000000000e+00 -7.4440429842836906e+01 -2.0519657942185607e+00 -7.6384670431429726e+01 0 0 0
267 8 2 0.0000000000000000e+00 -6.6656306202992837e+01 -8.8554189483529342e+00 -7.7162459690310698e+01 0 0 0
5322 153 4 0.0000000000000000e+00 -1.3414327709558827e+02 9.7100511669995946e+00 -8.3928071553128134e+01 0 0 0
3739 107 4 0.0000000000000000e+00 -1.2485127286322778e+02 5.4485061915951238e+00 -8.0075484690821199e+01 0 0 0
919 27 2 0.0000000000000000e+00 -1.1730309122262852e+02 1.5371526180080508e+00 -8.7420346616397168e+01 0 0 0
920 27 2 0.0000000000000000e+00 -1.1114967042668380e+02 6.8072159561508494e+00 -8.1830453965555762e+01 0 0 0
5528 158 4 0.0000000000000000e+00 -1.0429921604430254e+02 5.6558126126721209e-01 -8.5901742107815679e+01 0 0 0
1519 44 2 0.0000000000000000e+00 -8.8316295756134082e+01 1.1985927873636040e+01 -8.7306484493266282e+01 0 0 0
1518 44 2 0.0000000000000000e+00 -9.1984085832696593e+01 2.5731106440932030e+00 -8.6301433867707388e+01 0 0 0
795 23 1 0.0000000000000000e+00 -8.2004565080474251e+01 8.2853648725973095e+00 -7.9865319498520620e+01 0 0 0
796 23 2 0.0000000000000000e+00 -7.5544144245734316e+01 6.0567796635721631e+00 -8.6206773935865954e+01 0 0 0
797 23 2 0.0000000000000000e+00 -6.7702819273859959e+01 1.1058704461624385e+01 -8.3525684844522019e+01 0 0 0
5545 159 4 0.0000000000000000e+00 -1.5433041073001152e+02 1.7528527341288470e+01 -7.7158258019380071e+01 0 0 0
5546 159 4 0.0000000000000000e+00 -1.5414457543688781e+02 2.5377891508917550e+01 -8.3155529755998316e+01 0 0 0
5323 153 4 0.0000000000000000e+00 -1.3644835111061892e+02 1.9151653499710843e+01 -8.3785250675526825e+01 0 0 0
5543 159 4 0.0000000000000000e+00 -1.3574625771741839e+02 1.5445612615997844e+01 -7.5055578750570490e+01 0 0 0
5541 159 3 0.0000000000000000e+00 -1.2227122743000058e+02 1.9023933893352972e+01 -8.4296471034378044e+01 0 0 0
5542 159 4 0.0000000000000000e+00 -1.2815891646027978e+02 2.0728129008897447e+01 -7.6463464518269774e+01 0 0 0
921 27 1 0.0000000000000000e+00 -1.1229812651307550e+02 1.6310058655477381e+01 -8.0833332587186291e+01 0 0 0
1513 44 2 0.0000000000000000e+00 -1.0017146221848579e+02 1.2613977739319486e+01 -7.5419450700301113e+01 0 0 0
1512 44 2 0.0000000000000000e+00 -1.0282107198429220e+02 1.9656667868485279e+01 -8.2033252258420802e+01 0 0 0
6238 179 4 0.0000000000000000e+00 -8.1524069349891761e+01 1.9228166765668750e+01 -7.5703694409229186e+01 0 0 0
6237 179 4 0.0000000000000000e+00 -8.8822153107405811e+01 2.4785290749615218e+01 -7.4919978283093741e+01 0 0 0
6240 179 4 0.0000000000000000e+00 -6.8535213152322783e+01 2.1680005427884456e+01 -8.5593631192677648e+01 0 0 0
6239 179 4 0.0000000000000000e+00 -7.7642762549000182e+01 1.9694608001949941e+01 -8.4892399997044478e+01 0 0 0
6241 179 3 0.0000000000000000e+00 -5.8778939953467749e+01 2.1867281061491813e+01 -8.2210555806387788e+01 0 0 0
798 23 2 0.0000000000000000e+00 -6.6323315894100119e+01 1.6349326628487955e+01 -7.5255813431331163e+01 0 0 0
6242 179 4 0.0000000000000000e+00 -4.8323311608018194e+01 2.3200767645570668e+01 -8.3818214446423909e+01 0 0 0
6243 179 4 0.0000000000000000e+00 -4.0902684193906644e+01 1.6655503163407253e+01 -8.3952617794558108e+01 0 0 0
5547 159 4 0.0000000000000000e+00 -1.5499371142156079e+02 3.5180969004410279e+01 -8.5375972840222474e+01 0 0 0
5324 153 3 0.0000000000000000e+00 -1.3678313354945720e+02 2.9346642102285053e+01 -8.2625885492757803e+01 0 0 0
5548 159 3 0.0000000000000000e+00 -1.4551875889825047e+02 3.6623357814102469e+01 -8.2308239901042910e+01 0 0 0
5325 153 4 0.0000000000000000e+00 -1.2780498937319656e+02 3.2447544426559283e+01 -8.3690287091228242e+01 0 0 0
922 27 2 0.0000000000000000e+00 -1.1152559406355877e+02 2.5961981837407624e+01 -8.2859446058896708e+01 0 0 0
1506 44 2 0.0000000000000000e+00 -9.4854710459875676e+01 2.6156800562913165e+01 -8.4003528046432535e+01 0 0 0
1507 44 2 0.0000000000000000e+00 -1.0128362256036786e+02 3.2750096064905748e+01 -8.0957357492565379e+01 0 0 0
6236 179 4 0.0000000000000000e+00 -9.0543935554370208e+01 3.3624988989945344e+01 -7.8833447770833388e+01 0 0 0
5124 147 4 0.0000000000000000e+00 -8.2519241849330015e+01 2.8910956361733888e+01 -8.3426761207113188e+01 0 0 0
6235 179 4 0.0000000000000000e+00 -9.3947679360599849e+01 3.8627955795641533e+01 -8.6732450420834923e+01 0 0 0
5125 147 4 0.0000000000000000e+00 -7.3824132846025705e+01 3.3811015164100183e+01 -8.0371851060414613e+01 0 0 0
222 7 2 0.0000000000000000e+00 -5.3929912030901264e+01 3.3571127336742052e+01 -8.6160541893369597e+01 0 0 0
5126 147 4 0.0000000000000000e+00 -6.4087424083723448e+01 3.7409691144364970e+01 -8.0849062185703005e+01 0 0 0
223 7 2 0.0000000000000000e+00 -4.9158812430097072e+01 3.3818349709284071e+01 -7.7070498933826855e+01 0 0 0
2167 62 1 0.0000000000000000e+00 -8.6250661965311281e+01 -8.3733929451238311e+01 -6.5379516303327563e+01 0 0 0
2168 62 2 0.0000000000000000e+00 -7.9834136075796863e+01 -8.3714938217084168e+01 -7.3121204112799049e+01 0 0 0
4854 139 4 0.0000000000000000e+00 -8.5672698533908715e+01 -7.2256915220802838e+01 -6.6525218170732799e+01 0 0 0
2169 62 2 0.0000000000000000e+00 -7.0675014243814886e+01 -8.0638689966753944e+01 -7.1748811925757181e+01 0 0 0
2170 62 2 0.0000000000000000e+00 -6.2123679383020544e+01 -7.5916114284522763e+01 -7.2616126903880172e+01 0 0 0
4180 120 4 0.0000000000000000e+00 -8.2011657959264895e+01 -5.6984910681498192e+01 -6.8809651927214830e+01 0 0 0
4181 120 4 0.0000000000000000e+00 -7.3193145880117896e+01 -6.1858964377119122e+01 -6.9770540707428069e+01 0 0 0
6994 200 4 0.0000000000000000e+00 -5.7564479973528712e+01 -6.3856567359392535e+01 -6.8737253600625138e+01 0 0 0
6993 200 4 0.0000000000000000e+00 -6.2988311408768830e+01 -5.6169540143144374e+01 -6.7131805608099000e+01 0 0 0
4179 120 4 0.0000000000000000e+00 -8.8957140964452179e+01 -4.9913821019659629e+01 -7.1062912157670340e+01 0 0 0
2766 80 2 0.0000000000000000e+00 -8.3346491563310664e+01 -4.7722888925104456e+01 -6.3659356998866791e+01 0 0 0
6992 200 4 0.0000000000000000e+00 -6.7052575454256313e+01 -4.7762069169379672e+01 -6.2193756547374356e+01 0 0 0
3060 88 2 0.0000000000000000e+00 -5.7276594016152572e+01 -4.3803366590168508e+01 -7.0316953476527601e+01 0 0 0
3061 88 2 0.0000000000000000e+00 -5.6879182414283285e+01 -4.9492760558541832e+01 -6.1959909029142437e+01 0 0 0
4848 139 3 0.0000000000000000e+00 -5.2980612717794550e+01 -5.4121730430414132e+01 -7.1272132821084341e+01 0 0 0
4847 139 4 0.0000000000000000e+00 -4.4891960066924376e+01 -4.9303181044256171e+01 -7.3026118512038906e+01 0 0 0
4175 120 4 0.0000000000000000e+00 -8.7686989153785206e+01 -2.8755047615636897e+01 -6.2341341769693948e+01 0 0 0
3047 88 2 0.0000000000000000e+00 -7.4306957629645524e+01 -3.9722370353627412e+01 -7.0361356231146573e+01 0 0 0