LAMMPS data file via write_data, version 5 Jun 2019, timestep = 500000000

7000 atoms
4 atom types
7279 bonds
3 bond types
6600 angles
2 angle types

-5.0000000000000000e+02 5.0000000000000000e+02 xlo xhi
-5.0000000000000000e+02 5.0000000000000000e+02 ylo yhi
-5.0000000000000000e+02 5.0000000000000000e+02 zlo zhi

Masses

1 1000
2 1000
3 1000
4 1000

Pair Coeffs # lj/cut

1 0.296 10
2 0.296 10
3 0.296 10
4 0.296 10

Angle Coeffs # cosine

1 2
2 2

Atoms # full

5136 147 4 0.0000000000000000e+00 -4.4344709589583061e+01 2.1048718489736444e+01 -1.6670051431047861e+02 0 0 0
3197 92 2 0.0000000000000000e+00 -3.4188259641066672e+01 1.1422874129846882e+01 -1.6353601216287439e+02 0 0 0
3198 92 2 0.0000000000000000e+00 -2.7412941113288014e+01 8.2128060090101140e+00 -1.7137015356099124e+02 0 0 0
5138 147 4 0.0000000000000000e+00 -2.5903067887793704e+01 1.8001846588244149e+01 -1.6387701745773941e+02 0 0 0
5137 147 4 0.0000000000000000e+00 -3.5304192766374889e+01 2.2217495227154963e+01 -1.6346137291260146e+02 0 0 0
5135 147 3 0.0000000000000000e+00 -4.3917909355169655e+01 1.5883741003630051e+01 -1.5784004658114077e+02 0 0 0
3196 92 1 0.0000000000000000e+00 -3.3632583936526729e+01 1.3187624918637349e+01 -1.5350251390335396e+02 0 0 0
5111 147 4 0.0000000000000000e+00 -9.3655814649794223e+01 3.2129567934385612e+01 -1.5163905737158422e+02 0 0 0
5112 147 4 0.0000000000000000e+00 -8.5500315927971542e+01 3.8062211842506215e+01 -1.5183311107424481e+02 0 0 0
5113 147 4 0.0000000000000000e+00 -7.8845048037008780e+01 4.5351858135038732e+01 -1.5109344515962272e+02 0 0 0
5133 147 4 0.0000000000000000e+00 -5.1117666229622643e+01 1.9227333539159606e+01 -1.4022961001736559e+02 0 0 0
5134 147 4 0.0000000000000000e+00 -4.4244507691318447e+01 1.9012292101532022e+01 -1.4853936565099860e+02 0 0 0
3195 92 2 0.0000000000000000e+00 -3.4877733774234386e+01 1.4641617136149959e+01 -1.4358113063018152e+02 0 0 0
2802 81 2 0.0000000000000000e+00 -3.0672268027182191e+01 1.8639945601642324e+01 -1.3588840144671823e+02 0 0 0
2801 81 2 0.0000000000000000e+00 -2.2600188704935590e+01 1.6602348352049937e+01 -1.4099513934763962e+02 0 0 0
6545 187 4 0.0000000000000000e+00 -5.8667660380781342e+01 3.4145733988276945e+01 -1.4143180255314897e+02 0 0 0
3194 92 2 0.0000000000000000e+00 -3.6371668263866937e+01 2.4721801813497589e+01 -1.4234937712208563e+02 0 0 0
3193 92 2 0.0000000000000000e+00 -4.0812464529356632e+01 3.2066305974537158e+01 -1.3740016442008013e+02 0 0 0
2206 64 2 0.0000000000000000e+00 -9.1800513413350600e+01 4.8497317977614948e+01 -1.3684825662340529e+02 0 0 0
5114 147 3 0.0000000000000000e+00 -7.5302226860459683e+01 4.7036396483893114e+01 -1.4210881800660351e+02 0 0 0
3192 92 2 0.0000000000000000e+00 -4.3154824743291108e+01 4.1762888269817729e+01 -1.3647220123886942e+02 0 0 0
2208 64 2 0.0000000000000000e+00 -7.5273346687618613e+01 5.8121294167834577e+01 -1.3889713356616170e+02 0 0 0
2207 64 2 0.0000000000000000e+00 -8.3080530593504946e+01 5.3085480038081229e+01 -1.3659253185134142e+02 0 0 0
2209 64 1 0.0000000000000000e+00 -6.6957186500518659e+01 5.2214632980931363e+01 -1.3603989705359481e+02 0 0 0
3190 92 2 0.0000000000000000e+00 -4.8233388204033602e+01 5.7751436830646661e+01 -1.3670857861450770e+02 0 0 0
3191 92 2 0.0000000000000000e+00 -4.6902206865984539e+01 4.9422151015359994e+01 -1.4105132899221823e+02 0 0 0
2521 73 2 0.0000000000000000e+00 -1.1513111772413872e+02 7.1611196183753734e+01 -1.3707346411898058e+02 0 0 0
1785 51 2 0.0000000000000000e+00 -8.8064468313081491e+01 6.6977708744585811e+01 -1.4679173390079825e+02 0 0 0
1784 51 2 0.0000000000000000e+00 -8.1943870321211037e+01 7.3822387714106327e+01 -1.4165381992542612e+02 0 0 0
2486 72 2 0.0000000000000000e+00 -6.9098730464783088e+01 7.3979808241134279e+01 -1.3792653133439256e+02 0 0 0
2487 72 2 0.0000000000000000e+00 -6.1681240544711358e+01 7.2567653723413798e+01 -1.4453494190283573e+02 0 0 0
211 7 2 0.0000000000000000e+00 -7.1910005915171070e+01 -1.2488695534237781e+01 -1.3012090867241099e+02 0 0 0
5132 147 4 0.0000000000000000e+00 -4.8955607207343654e+01 1.4950531009874405e+01 -1.3144697292113756e+02 0 0 0
5131 147 4 0.0000000000000000e+00 -4.3849992884071511e+01 1.0924068882722612e+01 -1.2373602734846698e+02 0 0 0
2803 81 2 0.0000000000000000e+00 -3.5514653930497552e+01 2.0272876876170589e+01 -1.2770863445829204e+02 0 0 0
6544 187 4 0.0000000000000000e+00 -5.4645595602315595e+01 2.8263302209991060e+01 -1.3435856144879750e+02 0 0 0
6543 187 4 0.0000000000000000e+00 -4.6987703324848532e+01 2.6583924944312969e+01 -1.2770357472928234e+02 0 0 0
5115 147 4 0.0000000000000000e+00 -7.4390751258797138e+01 4.3974769610786609e+01 -1.3338684976803066e+02 0 0 0
5116 147 4 0.0000000000000000e+00 -6.8913529576315739e+01 4.4135726831098800e+01 -1.2550416594866641e+02 0 0 0
2212 64 2 0.0000000000000000e+00 -4.7252057982037343e+01 4.0657252727953804e+01 -1.2532857752383133e+02 0 0 0
2211 64 2 0.0000000000000000e+00 -5.2920879452363380e+01 4.7680497023400868e+01 -1.3023489564292754e+02 0 0 0
2808 81 2 0.0000000000000000e+00 -2.9904969454888548e+01 4.1351619291208948e+01 -1.2561667883594934e+02 0 0 0
2809 81 2 0.0000000000000000e+00 -2.0293726844380831e+01 4.0062956000687677e+01 -1.2249146447831701e+02 0 0 0
6521 187 3 0.0000000000000000e+00 -9.1642478001010986e+01 5.8929535047586299e+01 -1.3344005294096010e+02 0 0 0
6522 187 4 0.0000000000000000e+00 -8.9150821559882544e+01 5.5997489279680934e+01 -1.2369864409246310e+02 0 0 0
6520 187 4 0.0000000000000000e+00 -8.2689635142996167e+01 6.2612505745866386e+01 -1.3018285026710561e+02 0 0 0
2210 64 2 0.0000000000000000e+00 -5.9406902186790106e+01 5.5445093928648340e+01 -1.3110906504812112e+02 0 0 0
3189 92 1 0.0000000000000000e+00 -5.0715963779306541e+01 6.2909303347380032e+01 -1.2856252215036048e+02 0 0 0
2522 73 2 0.0000000000000000e+00 -1.0610039524809326e+02 7.4919209336741389e+01 -1.3356041754643309e+02 0 0 0
1782 51 1 0.0000000000000000e+00 -9.1407181817859723e+01 7.0018661346785308e+01 -1.3271918852276150e+02 0 0 0
1781 51 2 0.0000000000000000e+00 -9.6056785574787170e+01 6.5942192238961937e+01 -1.2509008623647239e+02 0 0 0
1738 50 2 0.0000000000000000e+00 -8.2118984198311523e+01 7.5306798303892094e+01 -1.2465656862611239e+02 0 0 0
6519 187 4 0.0000000000000000e+00 -7.4002373683442158e+01 6.7553532826941563e+01 -1.3125042994623121e+02 0 0 0
6518 187 4 0.0000000000000000e+00 -6.7883043096886340e+01 7.3444283330806883e+01 -1.2627473923772212e+02 0 0 0
3188 92 2 0.0000000000000000e+00 -4.9553969343508314e+01 7.2150555720129759e+01 -1.2528004312276758e+02 0 0 0
2835 81 2 0.0000000000000000e+00 -4.9087899629093315e+01 -6.6772741763572313e+01 -1.1653496363856146e+02 0 0 0
2834 81 2 0.0000000000000000e+00 -4.1388840509734550e+01 -6.3378660096260212e+01 -1.1190177180561732e+02 0 0 0
2833 81 2 0.0000000000000000e+00 -3.2204910674277251e+01 -5.9875400616024358e+01 -1.0931244354764138e+02 0 0 0
4737 136 4 0.0000000000000000e+00 -2.8551213085576837e+01 -4.3279658639104881e+01 -1.1310536710530170e+02 0 0 0
1622 47 2 0.0000000000000000e+00 -4.9982342674378899e+01 -2.4699249954863550e+01 -1.1592274639807299e+02 0 0 0
6242 179 4 0.0000000000000000e+00 -3.7428343985853878e+01 -2.2782876061171716e+01 -1.1327976659367006e+02 0 0 0
6243 179 4 0.0000000000000000e+00 -2.8334205492332178e+01 -2.3683878544724582e+01 -1.0900253394042799e+02 0 0 0
212 7 2 0.0000000000000000e+00 -6.6927613646316289e+01 -9.0290549496165031e+00 -1.2229033828377324e+02 0 0 0
1623 47 2 0.0000000000000000e+00 -4.5305374180415292e+01 -1.6069302976012523e+01 -1.2001431916780963e+02 0 0 0
1624 47 2 0.0000000000000000e+00 -3.9675857873372834e+01 -7.6422369320215235e+00 -1.1875566572350733e+02 0 0 0
6241 179 3 0.0000000000000000e+00 -4.5658920800089824e+01 -1.8590514736812345e+01 -1.0896581068117582e+02 0 0 0
6244 179 4 0.0000000000000000e+00 -2.2826958531338047e+01 -1.8010191696495642e+01 -1.1489860010765562e+02 0 0 0
213 7 2 0.0000000000000000e+00 -6.9545649402655954e+01 -4.1216971443250969e+00 -1.1341718927535810e+02 0 0 0
1625 47 2 0.0000000000000000e+00 -3.6333772650855181e+01 -2.4052685137380878e-01 -1.1209036980457063e+02 0 0 0
6335 181 4 0.0000000000000000e+00 -6.2824738762333311e+01 1.2564217895070314e+01 -1.1492950897745078e+02 0 0 0
6541 187 4 0.0000000000000000e+00 -5.1878383468994869e+01 1.4721148630557458e+01 -1.1210198795880368e+02 0 0 0
6542 187 3 0.0000000000000000e+00 -5.0195328934622403e+01 2.1695078336179737e+01 -1.1922017942919661e+02 0 0 0
2804 81 1 0.0000000000000000e+00 -3.8639272490184702e+01 1.9824230439545087e+01 -1.1876094928749249e+02 0 0 0
5130 147 4 0.0000000000000000e+00 -3.8911389866888875e+01 1.0275521977687864e+01 -1.1522322531178345e+02 0 0 0
5120 147 4 0.0000000000000000e+00 -8.4904092977104838e+01 2.8770593966278994e+01 -1.1052675791253505e+02 0 0 0
2806 81 2 0.0000000000000000e+00 -3.8340705323039515e+01 2.9937545990694225e+01 -1.1770517893094326e+02 0 0 0
2805 81 2 0.0000000000000000e+00 -3.6961610849015194e+01 2.4529149910097633e+01 -1.0982883255895213e+02 0 0 0
2527 73 2 0.0000000000000000e+00 -1.0873322668825062e+02 4.4705592616801368e+01 -1.1827904726401717e+02 0 0 0
2528 73 2 0.0000000000000000e+00 -1.1286479648046188e+02 4.0329719008479579e+01 -1.1041311500880221e+02 0 0 0
5117 147 4 0.0000000000000000e+00 -7.7603881908197167e+01 4.7482066355433076e+01 -1.2164345301471624e+02 0 0 0
5118 147 4 0.0000000000000000e+00 -8.0979257835383592e+01 4.5008286234997051e+01 -1.1270288766386169e+02 0 0 0
2213 64 2 0.0000000000000000e+00 -4.6904451339670175e+01 3.6018296277136223e+01 -1.1625212027244557e+02 0 0 0
2807 81 2 0.0000000000000000e+00 -3.7411949583171030e+01 3.9951940633235807e+01 -1.1948030993643285e+02 0 0 0
1630 47 2 0.0000000000000000e+00 -3.0669939301439104e+01 3.7866648319793335e+01 -1.1123857398394524e+02 0 0 0
1631 47 2 0.0000000000000000e+00 -2.9950353325884645e+01 4.6144645978325094e+01 -1.1642664658367643e+02 0 0 0
2526 73 2 0.0000000000000000e+00 -1.0524748901469538e+02 5.3296085886052978e+01 -1.2005840495194805e+02 0 0 0
1780 51 2 0.0000000000000000e+00 -9.4404960932430825e+01 6.1550268803510264e+01 -1.1654468946922272e+02 0 0 0
1779 51 2 0.0000000000000000e+00 -9.4078707385786004e+01 5.4454162601609205e+01 -1.0966513406038433e+02 0 0 0
6523 187 4 0.0000000000000000e+00 -8.3713539809825178e+01 5.5199732350029777e+01 -1.1554659655564923e+02 0 0 0
5913 169 4 0.0000000000000000e+00 -6.7885823400299259e+01 5.6043825225272279e+01 -1.1725518611318691e+02 0 0 0
5914 169 4 0.0000000000000000e+00 -6.1428470710847321e+01 5.6579353394239597e+01 -1.0998815154815456e+02 0 0 0
5912 169 3 0.0000000000000000e+00 -5.9302832233380364e+01 5.9044676521929730e+01 -1.2149677916812810e+02 0 0 0
5915 169 4 0.0000000000000000e+00 -5.2545005474338396e+01 5.1941341420171121e+01 -1.1191796539778593e+02 0 0 0
1632 47 2 0.0000000000000000e+00 -3.7574595507990935e+01 5.1736365714239248e+01 -1.1498799874297512e+02 0 0 0
6511 187 4 0.0000000000000000e+00 -4.3464604120763660e+01 5.9597143990809833e+01 -1.1183856566631896e+02 0 0 0
1633 47 2 0.0000000000000000e+00 -3.2133939527765037e+01 5.6991162473812004e+01 -1.0941964401464355e+02 0 0 0
2525 73 2 0.0000000000000000e+00 -1.0517385306927460e+02 6.3197034059416708e+01 -1.1676008635965287e+02 0 0 0
2524 73 1 0.0000000000000000e+00 -1.0189509547905372e+02 7.2708700643133156e+01 -1.1903045550693179e+02 0 0 0
4771 137 3 0.0000000000000000e+00 -9.4551294007774786e+01 7.4832399261847755e+01 -1.1057633479379906e+02 0 0 0
4770 137 4 0.0000000000000000e+00 -8.7836820089418993e+01 6.8873962802030817e+01 -1.1501991211898894e+02 0 0 0
1739 50 2 0.0000000000000000e+00 -7.7927243360917828e+01 6.8839861609019323e+01 -1.1756807362293398e+02 0 0 0
6514 187 3 0.0000000000000000e+00 -6.8362311085349930e+01 7.3317498532629017e+01 -1.1274210584722236e+02 0 0 0
6513 187 4 0.0000000000000000e+00 -6.0903608847564577e+01 6.6836070674572198e+01 -1.1000333342946684e+02 0 0 0
5911 169 4 0.0000000000000000e+00 -5.8752113658071934e+01 6.9184349209070675e+01 -1.1983128215979826e+02 0 0 0
6512 187 4 0.0000000000000000e+00 -5.2020558601856990e+01 6.3532020550905415e+01 -1.1337711852422328e+02 0 0 0
5910 169 4 0.0000000000000000e+00 -5.3304923881718139e+01 7.5120944582607549e+01 -1.1515623275016765e+02 0 0 0
3387 97 2 0.0000000000000000e+00 -3.7345561611283323e+01 7.1198553414321580e+01 -1.0984272180719573e+02 0 0 0
3388 97 2 0.0000000000000000e+00 -2.9222790773780520e+01 7.1456464518062205e+01 -1.1626542419212819e+02 0 0 0
1634 47 2 0.0000000000000000e+00 -2.4941897594906557e+01 6.3431607375064097e+01 -1.1189755246312139e+02 0 0 0
3389 97 2 0.0000000000000000e+00 -2.1297894177939128e+01 7.4972773877063020e+01 -1.2129111679111334e+02 0 0 0
2832 81 1 0.0000000000000000e+00 -2.6105418319602414e+01 -5.1831307116591773e+01 -1.0565176067628074e+02 0 0 0
4738 136 4 0.0000000000000000e+00 -3.7435452404810988e+01 -4.2334698812450256e+01 -1.0854620206808482e+02 0 0 0
2831 81 2 0.0000000000000000e+00 -2.6226698934877316e+01 -4.1903579909692546e+01 -1.0225542743127605e+02 0 0 0
2830 81 2 0.0000000000000000e+00 -2.1684771155948020e+01 -3.3574927893419023e+01 -1.0431626656721329e+02 0 0 0
6237 179 4 0.0000000000000000e+00 -6.4464924497601530e+01 -2.7718609862518328e+01 -9.7804272521175577e+01 0 0 0
1621 47 1 0.0000000000000000e+00 -5.2495458715275063e+01 -2.7517892411947525e+01 -1.0661175942413145e+02 0 0 0
1620 47 2 0.0000000000000000e+00 -5.1778779313365824e+01 -2.9574466378264184e+01 -9.6774852564341955e+01 0 0 0
4739 136 4 0.0000000000000000e+00 -3.5946575872371341e+01 -3.2749380635952477e+01 -1.0816705295898254e+02 0 0 0
4740 136 4 0.0000000000000000e+00 -3.7150054675655383e+01 -2.7634101433335424e+01 -9.9362831269360200e+01 0 0 0
4741 136 4 0.0000000000000000e+00 -3.0642103995344133e+01 -2.1841269674335788e+01 -9.5816932033176855e+01 0 0 0
6238 179 4 0.0000000000000000e+00 -6.4063827792173200e+01 -1.7969028346362553e+01 -1.0081495955399286e+02 0 0 0
6240 179 4 0.0000000000000000e+00 -4.9999733088605318e+01 -1.3135730720899748e+01 -1.0159284818182496e+02 0 0 0
6251 179 4 0.0000000000000000e+00 -2.2990626276240640e+01 -6.2810243826767627e+00 -1.0304593691125356e+02 0 0 0
215 7 2 0.0000000000000000e+00 -7.9568945584148807e+01 1.0734092524497565e+00 -9.6641931809631544e+01 0 0 0
214 7 1 0.0000000000000000e+00 -7.4221574125457565e+01 -3.1467130096028872e-01 -1.0533266705851119e+02 0 0 0
6536 187 4 0.0000000000000000e+00 -4.6935517405614668e+01 -2.1524231785177634e+00 -1.0029270531971815e+02 0 0 0
6537 187 4 0.0000000000000000e+00 -3.7674509759021277e+01 -4.0149948847418448e-01 -9.8925445518409504e+01 0 0 0
1626 47 2 0.0000000000000000e+00 -3.2439296230008253e+01 7.0857469282672101e+00 -1.0724628147074965e+02 0 0 0
6330 181 4 0.0000000000000000e+00 -9.3370079170880757e+01 9.6614337994978960e+00 -9.8337968813226055e+01 0 0 0
6331 181 4 0.0000000000000000e+00 -8.6692864008330886e+01 1.0571882341151912e+01 -1.0475609633150194e+02 0 0 0
6332 181 3 0.0000000000000000e+00 -7.7017205957090738e+01 1.1033551430315198e+01 -1.0751999812518098e+02 0 0 0
5122 147 4 0.0000000000000000e+00 -8.3724691122368569e+01 1.5079572021647182e+01 -9.6514364287517367e+01 0 0 0
5121 147 3 0.0000000000000000e+00 -8.3649828782458187e+01 2.1371426911543413e+01 -1.0407886504274890e+02 0 0 0
6333 181 4 0.0000000000000000e+00 -6.8170747722123679e+01 1.3615902445250214e+01 -1.0435933087383142e+02 0 0 0
2068 60 2 0.0000000000000000e+00 -6.6101040030331959e+01 1.9610742438982978e+01 -9.5872429688979494e+01 0 0 0
6334 181 4 0.0000000000000000e+00 -5.9803076744718382e+01 8.8289798962423429e+00 -1.0619888334133266e+02 0 0 0
6540 187 4 0.0000000000000000e+00 -4.9924326839845605e+01 1.2782420688660075e+01 -1.0246486880623307e+02 0 0 0
5129 147 4 0.0000000000000000e+00 -4.1662839833008960e+01 1.4850283477833052e+01 -1.0644792238626820e+02 0 0 0
6539 187 4 0.0000000000000000e+00 -4.3674950993013113e+01 1.5712726097961978e+01 -9.5377320194961513e+01 0 0 0
1627 47 2 0.0000000000000000e+00 -2.9984157419411961e+01 1.6923938453798307e+01 -1.0405015815423734e+02 0 0 0
2631 76 2 0.0000000000000000e+00 -2.1616602718856733e+01 1.5671482335020842e+01 -9.8155146169917174e+01 0 0 0
3885 111 4 0.0000000000000000e+00 -1.1897271663615925e+02 2.7749571565413724e+01 -9.6728678168099250e+01 0 0 0
2529 73 2 0.0000000000000000e+00 -1.1047929080029317e+02 3.2725233258684099e+01 -1.0493018745603631e+02 0 0 0
2530 73 2 0.0000000000000000e+00 -1.0305399934024797e+02 2.9300735622758364e+01 -9.9647467683435409e+01 0 0 0
2069 60 1 0.0000000000000000e+00 -7.5689363021097691e+01 2.2330021224622609e+01 -9.6741737807553974e+01 0 0 0
2070 60 2 0.0000000000000000e+00 -8.2308587402329650e+01 2.9115654424360116e+01 -9.5766064585708222e+01 0 0 0
2214 64 2 0.0000000000000000e+00 -4.3529081325400533e+01 3.4908300413478635e+01 -1.0711960330229387e+02 0 0 0
5128 147 3 0.0000000000000000e+00 -4.5755325964564534e+01 2.2817096155551649e+01 -1.0340906700509274e+02 0 0 0
2215 64 2 0.0000000000000000e+00 -4.0678999011760553e+01 3.2798832760370715e+01 -9.8202050024505809e+01 0 0 0
1628 47 1 0.0000000000000000e+00 -3.5106270268294537e+01 2.3672070637893157e+01 -9.9230937100209999e+01 0 0 0
2632 76 2 0.0000000000000000e+00 -2.1364670928278986e+01 2.3305656641454089e+01 -1.0437384802039936e+02 0 0 0
1629 47 2 0.0000000000000000e+00 -3.0993205241060934e+01 3.1835808713793501e+01 -1.0306921408147090e+02 0 0 0
910 26 2 0.0000000000000000e+00 -9.8536925640864041e+01 3.9398130808892056e+01 -9.9641284980600744e+01 0 0 0
2073 60 2 0.0000000000000000e+00 -9.3477341667052954e+01 4.3422808858903394e+01 -1.0738495375812815e+02 0 0 0
2074 60 2 0.0000000000000000e+00 -1.0189362918967696e+02 4.7213089433991676e+01 -1.0430077172931598e+02 0 0 0
5119 147 4 0.0000000000000000e+00 -7.9727581445416931e+01 3.6094874253295551e+01 -1.0776368402830185e+02 0 0 0
2072 60 2 0.0000000000000000e+00 -8.5828738161435069e+01 4.2375475890583935e+01 -1.0149070043341985e+02 0 0 0
6526 187 4 0.0000000000000000e+00 -7.4789102323461265e+01 4.2256134583197884e+01 -9.5893902253509566e+01 0 0 0
2076 60 1 0.0000000000000000e+00 -1.2010336982851980e+02 5.2388415732240503e+01 -9.8965912200398748e+01 0 0 0
2075 60 2 0.0000000000000000e+00 -1.1068706875541088e+02 4.9653490578448547e+01 -1.0159228046271001e+02 0 0 0
3745 107 4 0.0000000000000000e+00 -1.0524237390613365e+02 5.9655651382709166e+01 -1.0716636504916055e+02 0 0 0
3744 107 4 0.0000000000000000e+00 -1.0645433899694675e+02 5.8841380746325854e+01 -9.7418851208048935e+01 0 0 0
1778 51 2 0.0000000000000000e+00 -8.8745583149530262e+01 5.2074971798731355e+01 -1.0167139496683663e+02 0 0 0
908 26 2 0.0000000000000000e+00 -9.6337026369305462e+01 5.5604767393828247e+01 -9.5429769921994563e+01 0 0 0
6524 187 4 0.0000000000000000e+00 -7.6812999056935439e+01 5.6352823962156656e+01 -1.0817380663186874e+02 0 0 0
6525 187 4 0.0000000000000000e+00 -7.2958688709197801e+01 5.0640660166875548e+01 -1.0072994075988973e+02 0 0 0
5346 153 4 0.0000000000000000e+00 -6.1824050919245565e+01 5.0381610682313500e+01 -9.7041858428796445e+01 0 0 0
470 14 2 0.0000000000000000e+00 -5.2615159117890606e+01 6.0197386685262487e+01 -1.0288197160591588e+02 0 0 0
5347 153 4 0.0000000000000000e+00 -5.2070869451823754e+01 5.0343832609032781e+01 -9.6748070839568911e+01 0 0 0
471 14 2 0.0000000000000000e+00 -4.3095642554592452e+01 5.7324082881870090e+01 -1.0015994986874161e+02 0 0 0
472 14 2 0.0000000000000000e+00 -3.5074523994768853e+01 6.2736600438400394e+01 -9.9120835466082553e+01 0 0 0
1309 38 2 0.0000000000000000e+00 -2.6544612824432814e+01 5.5724884669370212e+01 -1.0026685045182202e+02 0 0 0
5541 159 3 0.0000000000000000e+00 -1.2094743283127413e+02 6.3157512505949946e+01 -9.8052168005858150e+01 0 0 0
907 26 1 0.0000000000000000e+00 -9.3404676318732569e+01 6.3457557389474189e+01 -1.0061369633297144e+02 0 0 0
1740 50 1 0.0000000000000000e+00 -7.7900619404480963e+01 6.8781519541475191e+01 -1.0776582800594522e+02 0 0 0
1741 50 2 0.0000000000000000e+00 -8.5048317814264649e+01 7.5112398342399572e+01 -1.0351449504647010e+02 0 0 0
469 14 2 0.0000000000000000e+00 -5.3897810389625448e+01 6.9690496212267689e+01 -1.0436891349619000e+02 0 0 0
3386 97 2 0.0000000000000000e+00 -4.0497136259132155e+01 7.2998561866283438e+01 -1.0036632719163903e+02 0 0 0
5437 156 4 0.0000000000000000e+00 -2.0039076264701873e+01 7.3822919016399368e+01 -9.6052802606822723e+01 0 0 0
473 14 1 0.0000000000000000e+00 -2.9838669358518239e+01 7.1635510845067017e+01 -9.9875225219146301e+01 0 0 0
6232 179 4 0.0000000000000000e+00 -3.9815643120865147e+01 -6.2648539890597355e+01 -8.4386981876866898e+01 0 0 0
6234 179 3 0.0000000000000000e+00 -5.3710595144886668e+01 -5.4053060157069503e+01 -9.0796467966768304e+01 0 0 0
6233 179 4 0.0000000000000000e+00 -4.6275310813521799e+01 -6.0409478080696381e+01 -9.1579356683508479e+01 0 0 0
6236 179 4 0.0000000000000000e+00 -6.0370352764576474e+01 -3.6127861262647443e+01 -9.4553871683021072e+01 0 0 0
6235 179 4 0.0000000000000000e+00 -5.6620376219909417e+01 -4.4409545876405154e+01 -9.1133751935864439e+01 0 0 0
1619 47 2 0.0000000000000000e+00 -5.0679396186634897e+01 -2.5635095173865540e+01 -8.7446921646112258e+01 0 0 0
2094 60 2 0.0000000000000000e+00 -6.0366257655598545e+01 -2.0585467609715781e+01 -8.5015260001341417e+01 0 0 0
1618 47 2 0.0000000000000000e+00 -4.1875832914945406e+01 -2.5595098167432610e+01 -8.2897263707539736e+01 0 0 0
217 7 2 0.0000000000000000e+00 -8.4904002070081290e+01 -1.1218802495515940e+01 -8.5783516979185379e+01 0 0 0
2092 60 2 0.0000000000000000e+00 -7.5101171346139083e+01 -7.8887844293644616e+00 -8.8713764292303651e+01 0 0 0
2093 60 2 0.0000000000000000e+00 -6.5499523335110467e+01 -1.1985172652947099e+01 -8.7096861463794681e+01 0 0 0
6239 179 4 0.0000000000000000e+00 -5.6670065936383168e+01 -1.4339767290500314e+01 -9.4116616792378323e+01 0 0 0
6254 179 4 0.0000000000000000e+00 -4.3322853969145996e+01 -9.6835891082444938e+00 -8.7085236172417851e+01 0 0 0
6253 179 4 0.0000000000000000e+00 -3.5566740053656297e+01 -1.0365655688818368e+01 -9.2826607750209874e+01 0 0 0
4742 136 4 0.0000000000000000e+00 -2.2165552055342211e+01 -1.6944834332055741e+01 -9.3249299796347813e+01 0 0 0
6329 181 4 0.0000000000000000e+00 -9.8350424997382362e+01 5.0737099842552986e+00 -9.0848891053893382e+01 0 0 0
6328 181 4 0.0000000000000000e+00 -1.0137999189749019e+02 -1.1913196750465445e+00 -8.3387079816122167e+01 0 0 0
216 7 2 0.0000000000000000e+00 -8.6868687534143973e+01 -4.1526804974156795e+00 -9.2323912996484040e+01 0 0 0
2091 60 2 0.0000000000000000e+00 -7.9550183467745342e+01 -2.5298717414285052e+00 -8.2266259898809565e+01 0 0 0
2066 60 2 0.0000000000000000e+00 -5.8239431000757882e+01 9.3880500430577363e-01 -9.5032804111369387e+01 0 0 0
6535 187 3 0.0000000000000000e+00 -4.8739249593335906e+01 2.4749568981629788e+00 -9.1100949118684156e+01 0 0 0
1510 44 2 0.0000000000000000e+00 -5.7447545833717015e+01 5.3835877625917847e+00 -8.2486456286415404e+01 0 0 0
1508 44 2 0.0000000000000000e+00 -4.0960169141730141e+01 1.5007893255882471e-01 -8.4984767766772805e+01 0 0 0
6538 187 4 0.0000000000000000e+00 -3.7726374327281036e+01 8.1229543503176664e+00 -9.3948719879998961e+01 0 0 0
2629 76 1 0.0000000000000000e+00 -2.1531615909072247e+01 -1.2088468557405663e+00 -8.7981644589545240e+01 0 0 0
6252 179 4 0.0000000000000000e+00 -2.7583689309974250e+01 -4.7904612026329358e+00 -9.4515084306832250e+01 0 0 0
2630 76 2 0.0000000000000000e+00 -2.0761761739312650e+01 7.3983974725339952e+00 -9.2351923653592308e+01 0 0 0
1507 44 2 0.0000000000000000e+00 -3.1787198066333413e+01 -2.5016252018700560e+00 -8.1949285433866621e+01 0 0 0
5559 159 4 0.0000000000000000e+00 -9.2604671607812492e+01 1.5809364103194476e+01 -8.8472838268279943e+01 0 0 0
5558 159 4 0.0000000000000000e+00 -9.8826870088837879e+01 1.2383488399406742e+01 -8.2360133482199089e+01 0 0 0
5123 147 4 0.0000000000000000e+00 -7.9465387813857987e+01 1.2760424998553944e+01 -8.8808287913710103e+01 0 0 0
5124 147 4 0.0000000000000000e+00 -7.0596321295657006e+01 1.0269012976251670e+01 -8.7046438807230075e+01 0 0 0
5125 147 4 0.0000000000000000e+00 -6.3273508069056781e+01 1.7492390627199615e+01 -8.5812742517325589e+01 0 0 0
2067 60 2 0.0000000000000000e+00 -6.0622628854670971e+01 1.0938214566917493e+01 -9.3951781779242822e+01 0 0 0
6534 187 4 0.0000000000000000e+00 -5.1434346329219501e+01 1.1667866330928002e+01 -8.8830617139748654e+01 0 0 0
6533 187 4 0.0000000000000000e+00 -5.2510594372069932e+01 1.9464670982088442e+01 -8.3209667019720214e+01 0 0 0
6313 181 4 0.0000000000000000e+00 -4.0056533232628972e+01 1.3898993707703946e+01 -8.4362153892867440e+01 0 0 0
6312 181 4 0.0000000000000000e+00 -3.1051908134042947e+01 1.7016101014972701e+01 -8.7761734442803331e+01 0 0 0
2531 73 1 0.0000000000000000e+00 -1.0741705254493081e+02 2.9950502220820308e+01 -9.0829163930517055e+01 0 0 0
2532 73 2 0.0000000000000000e+00 -1.1434631833994700e+02 3.0312740056346239e+01 -8.3289700650717649e+01 0 0 0
5561 159 4 0.0000000000000000e+00 -9.2734216106938860e+01 3.2814449222520629e+01 -9.4338125845563951e+01 0 0 0
5560 159 4 0.0000000000000000e+00 -9.1060006206180319e+01 2.3006836612846516e+01 -9.4327216658185250e+01 0 0 0
1534 44 2 0.0000000000000000e+00 -8.3046093594949923e+01 2.4433293404857864e+01 -8.4588878607867713e+01 0 0 0
1535 44 2 0.0000000000000000e+00 -7.3208952475039283e+01 2.2991521919387097e+01 -8.4424004795158623e+01 0 0 0
1536 44 2 0.0000000000000000e+00 -6.6460080901101875e+01 2.8006261289739840e+01 -8.9377543520291965e+01 0 0 0
5126 147 4 0.0000000000000000e+00 -5.7375837215482534e+01 2.3082700834870259e+01 -9.1952110430556615e+01 0 0 0
5127 147 4 0.0000000000000000e+00 -4.9026724835460740e+01 2.6315329838669481e+01 -9.4817668014761907e+01 0 0 0
1537 44 1 0.0000000000000000e+00 -5.8215450615731569e+01 3.3537224889117354e+01 -8.7959042034115328e+01 0 0 0
2216 64 1 0.0000000000000000e+00 -3.2042268416864935e+01 3.3146949194790309e+01 -9.2960388343147883e+01 0 0 0
6311 181 3 0.0000000000000000e+00 -2.6238370838102810e+01 2.3863510810687625e+01 -9.3409480907934594e+01 0 0 0
2217 64 2 0.0000000000000000e+00 -2.6533041860429886e+01 3.1677434560782888e+01 -8.4509954696543659e+01 0 0 0
2080 60 2 0.0000000000000000e+00 -1.3285406004994368e+02 3.7150505357686392e+01 -8.5249599736059508e+01 0 0 0
2079 60 2 0.0000000000000000e+00 -1.3182272034687284e+02 4.5989427837914732e+01 -8.4855443681341768e+01 0 0 0
2078 60 2 0.0000000000000000e+00 -1.3117899712236465e+02 4.6896183935854886e+01 -9.4934090967634489e+01 0 0 0
2077 60 2 0.0000000000000000e+00 -1.2236645232627126e+02 4.6164439587072557e+01 -9.0963587000844498e+01 0 0 0
3884 111 4 0.0000000000000000e+00 -1.1644616453328115e+02 3.6744646679426850e+01 -9.2977888190940888e+01 0 0 0
3883 111 4 0.0000000000000000e+00 -1.1222485907693006e+02 4.0737712971041304e+01 -8.4275779665300320e+01 0 0 0
5562 159 3 0.0000000000000000e+00 -9.8578246596075374e+01 3.5725089087533547e+01 -8.6646741953395065e+01 0 0 0
5563 159 4 0.0000000000000000e+00 -1.0097030074561108e+02 4.4683729222076401e+01 -8.3916955109483524e+01 0 0 0
909 26 2 0.0000000000000000e+00 -9.5892647439170062e+01 4.5905203205318749e+01 -9.2308092686302246e+01 0 0 0
2071 60 2 0.0000000000000000e+00 -8.3388359955411815e+01 3.8348370026584853e+01 -9.2305706925096928e+01 0 0 0
1776 51 2 0.0000000000000000e+00 -7.8327126103868252e+01 4.6760963072234937e+01 -8.7075080802700555e+01 0 0 0
6527 187 4 0.0000000000000000e+00 -7.0325513549243681e+01 3.8399207528886826e+01 -8.7675986348724038e+01 0 0 0
1538 44 2 0.0000000000000000e+00 -5.2192829685518660e+01 4.0988027403069516e+01 -9.1651811828606597e+01 0 0 0
1539 44 2 0.0000000000000000e+00 -4.2666926634644788e+01 4.2345236959493072e+01 -9.1379781451610896e+01 0 0 0
1540 44 2 0.0000000000000000e+00 -3.4850098745151385e+01 4.1766162996632161e+01 -8.4822113783731368e+01 0 0 0
1310 38 2 0.0000000000000000e+00 -3.0820535804313604e+01 4.9149963013386113e+01 -9.4024860517936474e+01 0 0 0
5540 159 4 0.0000000000000000e+00 -1.2984398757273746e+02 6.2037846925155783e+01 -9.3018572913979014e+01 0 0 0
5539 159 4 0.0000000000000000e+00 -1.2564178229723568e+02 5.6160126639626014e+01 -8.7177685581517338e+01 0 0 0
5538 159 4 0.0000000000000000e+00 -1.1914891975090241e+02 5.0942484817154607e+01 -8.2342432434800003e+01 0 0 0
3743 107 4 0.0000000000000000e+00 -1.0440304120397566e+02 5.8438112674363623e+01 -8.8147013935476679e+01 0 0 0
1894 55 1 0.0000000000000000e+00 -8.9015978076859611e+01 5.4221672584867157e+01 -8.5085286666812081e+01 0 0 0
3742 107 3 0.0000000000000000e+00 -9.6626050974158730e+01 6.1991311681588606e+01 -8.2373887208293922e+01 0 0 0
1777 51 2 0.0000000000000000e+00 -8.5583299932732189e+01 4.9595156955540666e+01 -9.3350200234501216e+01 0 0 0
1893 55 2 0.0000000000000000e+00 -8.7875692752733443e+01 6.0896330945875604e+01 -9.2201028149923090e+01 0 0 0
5345 153 3 0.0000000000000000e+00 -6.8997815065787961e+01 5.3166236841716035e+01 -9.0414835774421050e+01 0 0 0
5344 153 4 0.0000000000000000e+00 -6.7019794937250452e+01 6.1890113092371983e+01 -8.6648187024201533e+01 0 0 0
1773 51 2 0.0000000000000000e+00 -5.5132555754811420e+01 6.0294246744406017e+01 -8.2226457191292170e+01 0 0 0
5348 153 4 0.0000000000000000e+00 -4.4023047810712939e+01 5.2958330680206402e+01 -9.1355340981145730e+01 0 0 0
5349 153 4 0.0000000000000000e+00 -4.1243493583660488e+01 5.7250611010568612e+01 -8.2939744664329282e+01 0 0 0
5439 156 4 0.0000000000000000e+00 -2.0139813298163563e+01 5.4837037126101507e+01 -9.0641644897349792e+01 0 0 0
1311 38 2 0.0000000000000000e+00 -3.0236858110651223e+01 5.3522434741988086e+01 -8.5349793879819870e+01 0 0 0
1749 50 2 0.0000000000000000e+00 -1.4129913381245868e+02 7.2139628119430782e+01 -8.5766386338374033e+01 0 0 0
1748 50 2 0.0000000000000000e+00 -1.3309363059061559e+02 7.3152866898787124e+01 -9.1638469194428197e+01 0 0 0
5542 159 4 0.0000000000000000e+00 -1.1218483253685304e+02 6.7426265971422453e+01 -9.4002915766917880e+01 0 0 0
5543 159 4 0.0000000000000000e+00 -1.0774174814564634e+02 6.7028769944054702e+01 -8.5352049669733248e+01 0 0 0
906 26 2 0.0000000000000000e+00 -9.5369024730204117e+01 7.1000630330923741e+01 -9.4591952220635136e+01 0 0 0