LAMMPS data file via write_data, version 5 Jun 2019, timestep = 400000000

7000 atoms
4 atom types
7283 bonds
3 bond types
6600 angles
2 angle types

-5.0000000000000000e+02 5.0000000000000000e+02 xlo xhi
-5.0000000000000000e+02 5.0000000000000000e+02 ylo yhi
-5.0000000000000000e+02 5.0000000000000000e+02 zlo zhi

Masses

1 1000
2 1000
3 1000
4 1000

Pair Coeffs # lj/cut

1 0.296 10
2 0.296 10
3 0.296 10
4 0.296 10

Angle Coeffs # cosine

1 2
2 2

Atoms # full

6528 187 3 0.0000000000000000e+00 -3.4307121769429898e+01 -1.7649934556215289e+01 -1.5667077045973190e+02 0 0 0
6527 187 4 0.0000000000000000e+00 -4.0177756117764083e+01 -9.7568486235743901e+00 -1.5849327031791506e+02 0 0 0
1538 44 2 0.0000000000000000e+00 -3.2762297313260142e+01 -3.6534527660157157e-01 -1.6003834211589245e+02 0 0 0
5915 169 4 0.0000000000000000e+00 -5.6376047053914625e+01 5.1344102561983270e+01 -1.5989440198608526e+02 0 0 0
1366 40 2 0.0000000000000000e+00 -8.1940768916362131e+01 -4.3636399830523438e+01 -1.4633047583008212e+02 0 0 0
5537 159 4 0.0000000000000000e+00 -6.4852895523608680e+01 -4.6265907612601332e+01 -1.4787411836459370e+02 0 0 0
2801 81 2 0.0000000000000000e+00 -2.9068019486713755e+01 -4.4489297519695938e+01 -1.4417358344917565e+02 0 0 0
5536 159 4 0.0000000000000000e+00 -6.0408948671460266e+01 -3.8470060506874368e+01 -1.5183528466739381e+02 0 0 0
5535 159 4 0.0000000000000000e+00 -5.4330261055167625e+01 -3.1326493931737353e+01 -1.4656421040062926e+02 0 0 0
1532 44 2 0.0000000000000000e+00 -3.3942063092354772e+01 -3.6885173537201887e+01 -1.4817512948807521e+02 0 0 0
5534 159 3 0.0000000000000000e+00 -5.0118408145771625e+01 -2.2242242842766029e+01 -1.4672686150228230e+02 0 0 0
5533 159 4 0.0000000000000000e+00 -4.1703813594893269e+01 -1.6945793507222046e+01 -1.4878224354903659e+02 0 0 0
6529 187 4 0.0000000000000000e+00 -3.4097092321746068e+01 -2.5001925408479305e+01 -1.4941323153383641e+02 0 0 0
6526 187 4 0.0000000000000000e+00 -4.3781922996599839e+01 -1.2937732416672889e+00 -1.5592247721803048e+02 0 0 0
6525 187 4 0.0000000000000000e+00 -4.7438475284004966e+01 -6.2487348134980696e+00 -1.4829613704715754e+02 0 0 0
5532 159 4 0.0000000000000000e+00 -3.4911877763038611e+01 -9.2950714312580303e+00 -1.4759437172672847e+02 0 0 0
1540 44 2 0.0000000000000000e+00 -3.6485231290295474e+01 1.0908976308271505e+01 -1.4391353970548471e+02 0 0 0
1539 44 2 0.0000000000000000e+00 -3.4440499738451472e+01 6.8071915558290348e+00 -1.5317753199404302e+02 0 0 0
5914 169 4 0.0000000000000000e+00 -6.0903665693203337e+01 4.4683665023386794e+01 -1.5435826978198156e+02 0 0 0
5913 169 4 0.0000000000000000e+00 -6.3854578410290394e+01 4.7892279766175115e+01 -1.4537859832384302e+02 0 0 0
2088 60 2 0.0000000000000000e+00 -8.3325338280244154e+01 -7.2150241766423605e+01 -1.3279244110228319e+02 0 0 0
2089 60 2 0.0000000000000000e+00 -7.5770924555838434e+01 -7.8402166745963555e+01 -1.3069233653365720e+02 0 0 0
6244 179 4 0.0000000000000000e+00 -6.8621426230380251e+01 -6.9847132911240209e+01 -1.2924102524763808e+02 0 0 0
6243 179 4 0.0000000000000000e+00 -6.6750172339713103e+01 -6.6769940615669555e+01 -1.3825373056389495e+02 0 0 0
2835 81 2 0.0000000000000000e+00 -4.6272409850382090e+01 -6.9916002031442886e+01 -1.3805120900989257e+02 0 0 0
1368 40 2 0.0000000000000000e+00 -8.2632422777469969e+01 -5.8207996291668337e+01 -1.3471730921493196e+02 0 0 0
1369 40 1 0.0000000000000000e+00 -7.2974756371415822e+01 -5.6538776298801324e+01 -1.3299910221624154e+02 0 0 0
6242 179 4 0.0000000000000000e+00 -6.0357006473739624e+01 -5.9581540225094706e+01 -1.3902912043659936e+02 0 0 0
6241 179 3 0.0000000000000000e+00 -6.2386499105705809e+01 -5.7933459369609693e+01 -1.2919419985051721e+02 0 0 0
2834 81 2 0.0000000000000000e+00 -5.1724424178218747e+01 -6.2710504400647025e+01 -1.3355313088368590e+02 0 0 0
1367 40 2 0.0000000000000000e+00 -8.5607199288354494e+01 -5.2573233553880051e+01 -1.4245566464825933e+02 0 0 0
5538 159 4 0.0000000000000000e+00 -7.0954307362209207e+01 -5.0352235654265101e+01 -1.4226091183748261e+02 0 0 0
5539 159 4 0.0000000000000000e+00 -7.7926747620248875e+01 -4.8039885072074355e+01 -1.3439136850992281e+02 0 0 0
2075 60 2 0.0000000000000000e+00 -8.9156578176974193e+01 -3.5421997377605777e+01 -1.2934226202724389e+02 0 0 0
2074 60 2 0.0000000000000000e+00 -8.1558867481444850e+01 -3.4049487972703083e+01 -1.3608732153728064e+02 0 0 0
2073 60 2 0.0000000000000000e+00 -7.2841642046500169e+01 -3.1055884050520294e+01 -1.4058852026369368e+02 0 0 0
2072 60 2 0.0000000000000000e+00 -6.2678171354454079e+01 -3.0570631388602472e+01 -1.4090905954787084e+02 0 0 0
4550 130 4 0.0000000000000000e+00 -5.5478664225275793e+01 -3.0426264834622902e+01 -1.2911435174809708e+02 0 0 0
6239 179 4 0.0000000000000000e+00 -6.4473671191210187e+01 -3.8581002960463458e+01 -1.3001636463210042e+02 0 0 0
1530 44 1 0.0000000000000000e+00 -4.4873898893597563e+01 -2.9657351162957255e+01 -1.4024521689986847e+02 0 0 0
6530 187 4 0.0000000000000000e+00 -3.2332600408648389e+01 -2.9479839078416873e+01 -1.4035065887277435e+02 0 0 0
1531 44 2 0.0000000000000000e+00 -4.0837382388811271e+01 -3.9187718277284773e+01 -1.4135763170229799e+02 0 0 0
6531 187 4 0.0000000000000000e+00 -3.3552600553479508e+01 -3.5111835628654347e+01 -1.3167652063388982e+02 0 0 0
2071 60 2 0.0000000000000000e+00 -6.5215814414703942e+01 -2.1664992384389283e+01 -1.3737708839247631e+02 0 0 0
2070 60 2 0.0000000000000000e+00 -6.3176157776261370e+01 -1.3540809739317240e+01 -1.3188099058703898e+02 0 0 0
1529 44 2 0.0000000000000000e+00 -4.9118961325201283e+01 -2.2512671198569908e+01 -1.3477766570832298e+02 0 0 0
6523 187 4 0.0000000000000000e+00 -5.5329859180006558e+01 -5.4302109544886576e+00 -1.3217149820922700e+02 0 0 0
6524 187 4 0.0000000000000000e+00 -5.4847151948881610e+01 -6.1068016795041853e+00 -1.4166968385297787e+02 0 0 0
5531 159 4 0.0000000000000000e+00 -3.2685759873475007e+01 -1.0645388962943827e+00 -1.4237399181353928e+02 0 0 0
6518 187 4 0.0000000000000000e+00 -7.7392678633892771e+01 2.6649120198692490e+01 -1.3343910920776557e+02 0 0 0
3017 87 2 0.0000000000000000e+00 -5.7244627099524692e+01 2.3794611822883809e+01 -1.3188150803793150e+02 0 0 0
5438 156 4 0.0000000000000000e+00 -4.2766422529537081e+01 2.4894820828811294e+01 -1.3003700612444680e+02 0 0 0
5439 156 4 0.0000000000000000e+00 -3.3983939081262399e+01 2.0858415311379854e+01 -1.3282900169959615e+02 0 0 0
490 14 2 0.0000000000000000e+00 -9.5542175055914129e+01 2.8912989772361726e+01 -1.4252725461850136e+02 0 0 0
489 14 2 0.0000000000000000e+00 -9.3929505117827148e+01 3.8769663621565037e+01 -1.4172466201798613e+02 0 0 0
6517 187 4 0.0000000000000000e+00 -7.5982800543063817e+01 3.6337046178885139e+01 -1.3402961496108412e+02 0 0 0
3018 87 2 0.0000000000000000e+00 -5.9651039461229274e+01 2.8685082354250152e+01 -1.4055274635562247e+02 0 0 0
5911 169 4 0.0000000000000000e+00 -6.7900542186671643e+01 4.1236799218528724e+01 -1.2971866847991558e+02 0 0 0
3019 87 2 0.0000000000000000e+00 -5.9334172044292089e+01 3.8137480614897093e+01 -1.3711363633758154e+02 0 0 0
5437 156 4 0.0000000000000000e+00 -4.9702393935844285e+01 3.1440157260614587e+01 -1.3368583220272868e+02 0 0 0
5088 146 4 0.0000000000000000e+00 -2.9911071514329024e+01 3.1478791129189723e+01 -1.3013405065188667e+02 0 0 0
6514 187 3 0.0000000000000000e+00 -9.7500385886038842e+01 5.2036112197829013e+01 -1.2933154019476319e+02 0 0 0
488 14 2 0.0000000000000000e+00 -9.2986486117043157e+01 4.7965371074755325e+01 -1.3765130850287929e+02 0 0 0
6515 187 4 0.0000000000000000e+00 -9.1389499561361674e+01 4.3358168311984755e+01 -1.2924085496392317e+02 0 0 0
6516 187 4 0.0000000000000000e+00 -8.1976719810308339e+01 4.3791160041531512e+01 -1.3198763169579431e+02 0 0 0
5912 169 3 0.0000000000000000e+00 -6.8408308905097243e+01 4.8800558145469388e+01 -1.3641625930325679e+02 0 0 0
3020 87 2 0.0000000000000000e+00 -5.7673478050214015e+01 4.6588111883557445e+01 -1.3137302722154584e+02 0 0 0
2090 60 1 0.0000000000000000e+00 -7.1250586796565315e+01 -8.2632806423857744e+01 -1.2289827595793673e+02 0 0 0
6245 179 4 0.0000000000000000e+00 -7.2358705173215810e+01 -6.8711602967501889e+01 -1.2012553547310358e+02 0 0 0
6325 181 3 0.0000000000000000e+00 -4.3347294852727330e+01 -7.6035228896399261e+01 -1.2087703349261621e+02 0 0 0
2087 60 2 0.0000000000000000e+00 -8.7730085045035125e+01 -6.6182760943621261e+01 -1.2539281182284334e+02 0 0 0
2086 60 2 0.0000000000000000e+00 -8.9936004755784111e+01 -5.9803658144270656e+01 -1.1766701742486559e+02 0 0 0
2832 81 1 0.0000000000000000e+00 -5.7856874285048150e+01 -5.7661431163525847e+01 -1.1598033609074525e+02 0 0 0
6324 181 4 0.0000000000000000e+00 -4.3860275618861102e+01 -6.6273041297482763e+01 -1.2308782898319819e+02 0 0 0
2833 81 2 0.0000000000000000e+00 -5.3283342551934830e+01 -6.0007719943857538e+01 -1.2407610546515835e+02 0 0 0
6323 181 4 0.0000000000000000e+00 -4.1861791451445498e+01 -5.6907519886532185e+01 -1.1894907942261378e+02 0 0 0
2805 81 2 0.0000000000000000e+00 -3.1958860618900061e+01 -5.4349235217627424e+01 -1.1617431919469529e+02 0 0 0
5540 159 4 0.0000000000000000e+00 -8.2802652508848993e+01 -4.4893194962856874e+01 -1.2652530667339811e+02 0 0 0
1370 40 2 0.0000000000000000e+00 -7.1957536548190433e+01 -4.8822523100611278e+01 -1.2629168728805274e+02 0 0 0
6240 179 4 0.0000000000000000e+00 -6.1442881283224317e+01 -4.8030535087093021e+01 -1.2829924786711385e+02 0 0 0
1371 40 2 0.0000000000000000e+00 -6.6440237459353526e+01 -4.1628029101297159e+01 -1.2039984168411166e+02 0 0 0
6234 179 3 0.0000000000000000e+00 -5.1115731004436903e+01 -4.8877759599391311e+01 -1.1544694221673078e+02 0 0 0
2804 81 1 0.0000000000000000e+00 -2.9727850358384181e+01 -5.2586179482049467e+01 -1.2584460925149472e+02 0 0 0
4547 130 3 0.0000000000000000e+00 -3.0404662461254109e+01 -4.2594515778031962e+01 -1.2078537546989672e+02 0 0 0
2530 73 2 0.0000000000000000e+00 -1.1904424183800492e+02 -2.8395729996495842e+01 -1.2014346350314376e+02 0 0 0
5541 159 3 0.0000000000000000e+00 -8.3837614590957713e+01 -3.5742838246993884e+01 -1.2174349230692221e+02 0 0 0
2076 60 1 0.0000000000000000e+00 -8.7759880178476962e+01 -2.6334730843989696e+01 -1.2487215528129511e+02 0 0 0
6238 179 4 0.0000000000000000e+00 -6.7680982154069000e+01 -3.1441831181885821e+01 -1.2413876044006126e+02 0 0 0
6237 179 4 0.0000000000000000e+00 -6.3706878066665517e+01 -2.8187172558156362e+01 -1.1549677630491591e+02 0 0 0
4549 130 4 0.0000000000000000e+00 -4.8982179819557985e+01 -3.6284179810576937e+01 -1.2395382312776266e+02 0 0 0
4548 130 4 0.0000000000000000e+00 -3.9265143700938928e+01 -3.9133924817529710e+01 -1.2252121157888249e+02 0 0 0
6532 187 4 0.0000000000000000e+00 -3.3585265600368750e+01 -2.8035020021847114e+01 -1.2400172466440104e+02 0 0 0
2529 73 2 0.0000000000000000e+00 -1.1124037445952554e+02 -2.1946913071349410e+01 -1.2255382555546906e+02 0 0 0
3186 92 2 0.0000000000000000e+00 -1.1783484343695240e+02 -1.3687546933113946e+01 -1.2103771362046432e+02 0 0 0
2077 60 2 0.0000000000000000e+00 -9.1811869213742298e+01 -2.0807087391369475e+01 -1.1778560699689569e+02 0 0 0
1527 44 2 0.0000000000000000e+00 -5.8994342962220827e+01 -1.3747764241333046e+01 -1.2249154807623979e+02 0 0 0
1526 44 2 0.0000000000000000e+00 -6.7142898773678581e+01 -1.6529061736826829e+01 -1.1818112258891652e+02 0 0 0
1528 44 2 0.0000000000000000e+00 -5.1404399377026500e+01 -1.6686016845753471e+01 -1.2693428354122274e+02 0 0 0
1645 47 2 0.0000000000000000e+00 -4.0310615481668684e+01 -1.9144550187251909e+01 -1.2570840880036022e+02 0 0 0
6533 187 4 0.0000000000000000e+00 -3.5512110943553971e+01 -2.2284997208631733e+01 -1.1695368492648963e+02 0 0 0
3187 92 2 0.0000000000000000e+00 -1.1004097937247431e+02 -8.5901375160674380e+00 -1.2495316427305632e+02 0 0 0
3188 92 2 0.0000000000000000e+00 -1.0371785269685158e+02 -1.3756475311662003e-01 -1.2428828451830790e+02 0 0 0
2067 60 2 0.0000000000000000e+00 -8.3184119311878931e+01 -7.5459295181765143e+00 -1.1863262443977452e+02 0 0 0
2068 60 2 0.0000000000000000e+00 -7.4329630363760828e+01 -5.0596409270026665e+00 -1.2212687222982980e+02 0 0 0
2069 60 1 0.0000000000000000e+00 -6.6096863785201577e+01 -5.4373055111039887e+00 -1.2706945345616792e+02 0 0 0
6537 187 4 0.0000000000000000e+00 -6.6916648396940360e+01 -4.1811805361285597e+00 -1.1627368698391375e+02 0 0 0
1644 47 2 0.0000000000000000e+00 -4.1648464402408010e+01 -1.1042526504588288e+01 -1.1936860218649451e+02 0 0 0
3189 92 1 0.0000000000000000e+00 -1.0307514538464706e+02 7.8399954070148361e+00 -1.1870899184406044e+02 0 0 0
6520 187 4 0.0000000000000000e+00 -7.5202893751646442e+01 8.8110442923958185e+00 -1.2572049727889339e+02 0 0 0
6539 187 4 0.0000000000000000e+00 -8.0587646355757173e+01 1.1061029332123868e+01 -1.1767643886194240e+02 0 0 0
6538 187 4 0.0000000000000000e+00 -7.4409119830526024e+01 2.8452546849473275e+00 -1.1568696308876366e+02 0 0 0
6522 187 4 0.0000000000000000e+00 -5.6390344411448169e+01 1.9255165360556974e+00 -1.2530887137688779e+02 0 0 0
6521 187 3 0.0000000000000000e+00 -6.5819011155455314e+01 5.2058631264663235e+00 -1.2525434008832676e+02 0 0 0
5137 147 4 0.0000000000000000e+00 -6.5623856944004217e+01 1.4331484134768354e+01 -1.1849540064364035e+02 0 0 0
3015 87 2 0.0000000000000000e+00 -5.1558612420157402e+01 1.1231851881410316e+01 -1.1959452022467325e+02 0 0 0
5097 146 4 0.0000000000000000e+00 -2.9428769258804959e+01 7.7592105936322824e+00 -1.2205778897700938e+02 0 0 0
5098 146 4 0.0000000000000000e+00 -3.8373805227513500e+01 1.1909624989996706e+01 -1.2170318381855408e+02 0 0 0
3190 92 2 0.0000000000000000e+00 -1.0190493991484506e+02 1.7351144180261940e+01 -1.1919527295468232e+02 0 0 0
3191 92 2 0.0000000000000000e+00 -9.9332236739430854e+01 2.7009965003992072e+01 -1.1792394299140125e+02 0 0 0
6540 187 4 0.0000000000000000e+00 -8.5542499795319515e+01 1.9599834104316184e+01 -1.1955930992982663e+02 0 0 0
6519 187 4 0.0000000000000000e+00 -7.7458977361373371e+01 1.7992535671699038e+01 -1.2887101074325761e+02 0 0 0
5138 147 4 0.0000000000000000e+00 -6.7474523691946615e+01 2.2791853514540765e+01 -1.2352996764272810e+02 0 0 0
3016 87 2 0.0000000000000000e+00 -5.6061898114740835e+01 1.5327455701046837e+01 -1.2749546936714640e+02 0 0 0
3014 87 1 0.0000000000000000e+00 -5.5246172682602555e+01 1.9428880206657915e+01 -1.1527805510757742e+02 0 0 0
5099 146 4 0.0000000000000000e+00 -4.5438941066712943e+01 1.9456604843362314e+01 -1.2166333266232155e+02 0 0 0
5100 146 3 0.0000000000000000e+00 -5.1835491460037652e+01 2.7627147893227821e+01 -1.2212403191759367e+02 0 0 0
3192 92 2 0.0000000000000000e+00 -9.9192484404597067e+01 3.6893651306568991e+01 -1.1725968939798452e+02 0 0 0
5909 169 4 0.0000000000000000e+00 -7.4002938133891647e+01 3.8771925249295478e+01 -1.1566030709386952e+02 0 0 0
5910 169 4 0.0000000000000000e+00 -6.9219751716514835e+01 3.3813335510202840e+01 -1.2262735797581985e+02 0 0 0
5139 147 4 0.0000000000000000e+00 -6.4317961532897968e+01 2.8087361021746620e+01 -1.1647986752212421e+02 0 0 0
5101 146 4 0.0000000000000000e+00 -5.6751197812129639e+01 3.6437953731475815e+01 -1.2250837713064045e+02 0 0 0
5436 156 3 0.0000000000000000e+00 -4.7535490177676998e+01 3.9040598863693042e+01 -1.2749825779169124e+02 0 0 0
5087 146 4 0.0000000000000000e+00 -3.5365401551120819e+01 3.3612619988999427e+01 -1.2199342366565712e+02 0 0 0
3194 92 2 0.0000000000000000e+00 -8.9045166919486704e+01 5.2014915259490891e+01 -1.1706361410105299e+02 0 0 0
3195 92 2 0.0000000000000000e+00 -8.7590692233656966e+01 5.4976464657051096e+01 -1.2641796759025495e+02 0 0 0
5103 146 4 0.0000000000000000e+00 -7.0646318910785439e+01 4.9594797193062412e+01 -1.2427332432445048e+02 0 0 0
5102 146 4 0.0000000000000000e+00 -6.3945876311320049e+01 4.3080482306701981e+01 -1.2102023334673919e+02 0 0 0
3021 87 1 0.0000000000000000e+00 -5.2384831793664318e+01 4.7666092456634068e+01 -1.2314575774223576e+02 0 0 0
3022 87 2 0.0000000000000000e+00 -4.5142978989634919e+01 5.3093595096970013e+01 -1.1903447680977895e+02 0 0 0
5435 156 4 0.0000000000000000e+00 -4.1375393724579467e+01 4.6848007031939694e+01 -1.2614903151962204e+02 0 0 0
3024 87 2 0.0000000000000000e+00 -3.0365585436409599e+01 4.3945499660317871e+01 -1.2425476429543028e+02 0 0 0
3023 87 2 0.0000000000000000e+00 -3.5788229922182822e+01 4.8923194002883641e+01 -1.1778665518343769e+02 0 0 0
5434 156 4 0.0000000000000000e+00 -3.5746337214491113e+01 5.4913752933200378e+01 -1.2572916307202586e+02 0 0 0
2091 60 2 0.0000000000000000e+00 -7.0649144895998489e+01 -8.1889677475056104e+01 -1.1304279780470202e+02 0 0 0
2092 60 2 0.0000000000000000e+00 -7.1148656399747395e+01 -8.2243797854548475e+01 -1.0315643728984240e+02 0 0 0
6326 181 4 0.0000000000000000e+00 -4.1177448206050059e+01 -8.1891384521096413e+01 -1.1303656329006091e+02 0 0 0
6327 181 4 0.0000000000000000e+00 -3.2497464133343918e+01 -8.1437235585277037e+01 -1.0746279653196407e+02 0 0 0
6251 179 4 0.0000000000000000e+00 -8.2271466620617275e+01 -7.0864275787263963e+01 -1.0434705553007308e+02 0 0 0
6247 179 4 0.0000000000000000e+00 -7.0284057652241827e+01 -6.8567991688740548e+01 -1.0315343935523151e+02 0 0 0
2096 60 2 0.0000000000000000e+00 -5.5790877864057784e+01 -7.6720181782694027e+01 -1.0438690542945487e+02 0 0 0
2097 60 1 0.0000000000000000e+00 -4.8805090901871445e+01 -7.3493150285989771e+01 -1.1129252244077824e+02 0 0 0
2808 81 2 0.0000000000000000e+00 -4.3003516924243009e+01 -6.9511538568317533e+01 -1.0351005711687655e+02 0 0 0
2099 60 2 0.0000000000000000e+00 -2.9211029069289097e+01 -7.0723788297149852e+01 -1.1457771644952972e+02 0 0 0
2098 60 2 0.0000000000000000e+00 -3.9183044894667603e+01 -7.1271191637186220e+01 -1.1283092430816181e+02 0 0 0
2085 60 2 0.0000000000000000e+00 -9.9248738369571328e+01 -5.9291611067113081e+01 -1.1422804186740974e+02 0 0 0
6253 179 4 0.0000000000000000e+00 -9.6218747162402849e+01 -5.6290227396118865e+01 -1.0385580545040311e+02 0 0 0
6252 179 4 0.0000000000000000e+00 -8.9679441695602094e+01 -6.4240890303082892e+01 -1.0261948338206606e+02 0 0 0
6246 179 4 0.0000000000000000e+00 -7.3762775446898772e+01 -6.5146303237244368e+01 -1.1139966759489920e+02 0 0 0
6233 179 4 0.0000000000000000e+00 -4.8327900922294923e+01 -5.7659094552817010e+01 -1.1057352959439798e+02 0 0 0
6232 179 4 0.0000000000000000e+00 -5.2854176707946870e+01 -6.2232855816175885e+01 -1.0267159946863538e+02 0 0 0
2806 81 2 0.0000000000000000e+00 -3.1669551140174370e+01 -5.9012513501880449e+01 -1.0748337080013580e+02 0 0 0
2533 73 2 0.0000000000000000e+00 -1.2768375553746003e+02 -4.8199786596672183e+01 -1.0290656528892222e+02 0 0 0
2532 73 2 0.0000000000000000e+00 -1.2123541964240972e+02 -4.3163473164079058e+01 -1.0872016872155270e+02 0 0 0
2083 60 1 0.0000000000000000e+00 -1.0902789320317143e+02 -4.5207539424948017e+01 -1.0698330297831417e+02 0 0 0
2084 60 2 0.0000000000000000e+00 -1.0664843456536389e+02 -5.2662572745273053e+01 -1.1408282069287911e+02 0 0 0
6254 179 4 0.0000000000000000e+00 -9.9238426576679188e+01 -4.6327710488585289e+01 -1.0406624168097306e+02 0 0 0
2939 84 2 0.0000000000000000e+00 -8.5772761965294848e+01 -4.1845378795839139e+01 -1.0405870439581520e+02 0 0 0
2940 84 2 0.0000000000000000e+00 -8.2298419774963676e+01 -5.1567476439531553e+01 -1.0155830081092876e+02 0 0 0
2830 81 2 0.0000000000000000e+00 -7.0406461618552498e+01 -4.6150072504234444e+01 -1.0770778976450273e+02 0 0 0
2831 81 2 0.0000000000000000e+00 -6.4932597268583365e+01 -5.1821541469544250e+01 -1.1259332844087096e+02 0 0 0
6321 181 4 0.0000000000000000e+00 -4.3802123824977123e+01 -4.3331554311392054e+01 -1.0645372097159175e+02 0 0 0
6235 179 4 0.0000000000000000e+00 -5.2563032524873734e+01 -3.9667959008289841e+01 -1.1166916035263934e+02 0 0 0
6322 181 4 0.0000000000000000e+00 -4.0180586079730944e+01 -4.8028236103771235e+01 -1.1458726724435962e+02 0 0 0
2628 76 2 0.0000000000000000e+00 -3.2239443136526624e+01 -4.0217649141320990e+01 -1.0989404687284120e+02 0 0 0
5555 159 3 0.0000000000000000e+00 -1.2253982212193303e+02 -2.9985108963734202e+01 -1.0709161856846900e+02 0 0 0
2531 73 1 0.0000000000000000e+00 -1.1676459527205296e+02 -3.6131828471510396e+01 -1.1450704253338429e+02 0 0 0
5542 159 4 0.0000000000000000e+00 -8.5047075930501052e+01 -2.9558629745164666e+01 -1.1331790247034287e+02 0 0 0
1372 40 2 0.0000000000000000e+00 -7.4245713605544267e+01 -3.8111396748137530e+01 -1.1483485738755647e+02 0 0 0
1373 40 2 0.0000000000000000e+00 -7.5510636742901411e+01 -3.1575019288689262e+01 -1.0777757689199061e+02 0 0 0
6236 179 4 0.0000000000000000e+00 -6.0430952786476169e+01 -3.5005689282688159e+01 -1.0892467761569380e+02 0 0 0
2626 76 2 0.0000000000000000e+00 -4.9015957155443395e+01 -2.9507989937598957e+01 -1.1093835035556965e+02 0 0 0
2627 76 2 0.0000000000000000e+00 -3.9587908170135563e+01 -3.3843115447531638e+01 -1.0948686539378990e+02 0 0 0
5556 159 4 0.0000000000000000e+00 -1.2841223285268083e+02 -2.2209869547777050e+01 -1.0674707124627652e+02 0 0 0
5557 159 4 0.0000000000000000e+00 -1.2119193835931891e+02 -1.5028651839508758e+01 -1.0510538547548722e+02 0 0 0
2527 73 2 0.0000000000000000e+00 -1.1188499449882995e+02 -1.6947251138596840e+01 -1.1137175759579578e+02 0 0 0
2528 73 2 0.0000000000000000e+00 -1.0581572446436152e+02 -2.4565711456267795e+01 -1.1470020325017353e+02 0 0 0
2079 60 2 0.0000000000000000e+00 -1.0390879560972739e+02 -1.8779650748382654e+01 -1.0311141096591268e+02 0 0 0
2078 60 2 0.0000000000000000e+00 -9.8235822916934438e+01 -1.7442991324669553e+01 -1.1060000330648053e+02 0 0 0
5543 159 4 0.0000000000000000e+00 -8.9571551547902388e+01 -2.3219332778380117e+01 -1.0684890828411353e+02 0 0 0
1509 44 1 0.0000000000000000e+00 -5.6776287864841080e+01 -1.5083260813372188e+01 -1.0235452383483154e+02 0 0 0
6534 187 4 0.0000000000000000e+00 -4.1547711171587920e+01 -1.7468021501543927e+01 -1.1149549519966267e+02 0 0 0
6301 181 4 0.0000000000000000e+00 -2.9700323603072277e+01 -2.3477022407228823e+01 -1.0687656106617769e+02 0 0 0
2526 73 2 0.0000000000000000e+00 -1.1306258140656759e+02 -7.2893597737796396e+00 -1.0879171561146552e+02 0 0 0
2066 60 2 0.0000000000000000e+00 -8.4855594572655704e+01 -6.9855810815556840e-01 -1.1097451253928105e+02 0 0 0
1525 44 2 0.0000000000000000e+00 -7.2125794996914181e+01 -1.2296047874031263e+01 -1.1098101341761286e+02 0 0 0
1524 44 2 0.0000000000000000e+00 -7.7857757961620877e+01 -6.5687248558243869e+00 -1.0610521939500418e+02 0 0 0
5120 147 4 0.0000000000000000e+00 -6.9169719011096277e+01 8.3127974142644312e-01 -1.0325532604368041e+02 0 0 0
6536 187 4 0.0000000000000000e+00 -5.9246499287804447e+01 -1.0353870229132015e+01 -1.1256333325735780e+02 0 0 0
1643 47 2 0.0000000000000000e+00 -4.2123635435067285e+01 -3.0547885967083026e+00 -1.1368641267260799e+02 0 0 0
6535 187 3 0.0000000000000000e+00 -5.0369714720008687e+01 -1.1736608081754014e+01 -1.1124831457748813e+02 0 0 0
803 23 2 0.0000000000000000e+00 -4.5246041298005650e+01 4.1949665744152204e-01 -1.0436274394448238e+02 0 0 0
2525 73 2 0.0000000000000000e+00 -1.1601369048845795e+02 2.3472219249400887e+00 -1.0741380489560592e+02 0 0 0
2524 73 1 0.0000000000000000e+00 -1.1228618522635209e+02 1.0548971015246835e+01 -1.0291622169731895e+02 0 0 0
6545 187 4 0.0000000000000000e+00 -9.9053011753711147e+01 8.6627406197081189e+00 -1.0878537714599409e+02 0 0 0
2521 73 2 0.0000000000000000e+00 -8.6590605561348653e+01 1.1511918182761471e+01 -1.0210628657486237e+02 0 0 0
5530 158 4 0.0000000000000000e+00 -7.6130725221379606e+01 1.4327405171193540e+01 -1.1017484561226989e+02 0 0 0
5119 147 4 0.0000000000000000e+00 -6.8974958605636004e+01 1.0746288100843977e+01 -1.0169238209089085e+02 0 0 0
5136 147 4 0.0000000000000000e+00 -6.0457544145357176e+01 7.2772334920242585e+00 -1.1436648212538006e+02 0 0 0
1642 47 1 0.0000000000000000e+00 -4.2389236404666612e+01 6.6189832846223906e+00 -1.1318768322796973e+02 0 0 0
5135 147 3 0.0000000000000000e+00 -5.2474827806792248e+01 9.4495706311763410e+00 -1.0932937163367748e+02 0 0 0
804 23 2 0.0000000000000000e+00 -4.3421575740268153e+01 1.0073814011433774e+01 -1.0384582553790945e+02 0 0 0
6544 187 4 0.0000000000000000e+00 -9.8849896013452010e+01 1.8682398757252983e+01 -1.0910997046154758e+02 0 0 0
6543 187 4 0.0000000000000000e+00 -9.8045227354149063e+01 2.7857783816805991e+01 -1.0597814584756445e+02 0 0 0
6541 187 4 0.0000000000000000e+00 -8.6269378504526571e+01 2.7044731545900930e+01 -1.1265659288410596e+02 0 0 0
5529 158 4 0.0000000000000000e+00 -8.1585034609571053e+01 2.1038943439353748e+01 -1.0563797524860503e+02 0 0 0
5140 147 4 0.0000000000000000e+00 -6.3849327366570336e+01 2.6290755119713239e+01 -1.0648147532340144e+02 0 0 0
5134 147 4 0.0000000000000000e+00 -5.0715661213076821e+01 1.8193859827167941e+01 -1.0525507255762207e+02 0 0 0
1641 47 2 0.0000000000000000e+00 -4.2914062904686183e+01 1.6038417324245852e+01 -1.1093969407445989e+02 0 0 0
1640 47 2 0.0000000000000000e+00 -4.0527824568387160e+01 2.5686688629088977e+01 -1.1094004118474396e+02 0 0 0
1639 47 2 0.0000000000000000e+00 -3.1086036330084674e+01 2.6457916834160041e+01 -1.1377583805303667e+02 0 0 0
5353 153 4 0.0000000000000000e+00 -3.0607358185385390e+01 2.0462589947824828e+01 -1.0490515126123191e+02 0 0 0
1744 50 2 0.0000000000000000e+00 -1.3707442782214429e+02 3.5273778615877454e+01 -1.0472850128712057e+02 0 0 0
1743 50 2 0.0000000000000000e+00 -1.2784895473171818e+02 3.6872759705212985e+01 -1.0619984000855227e+02 0 0 0
6542 187 3 0.0000000000000000e+00 -9.1030847666417102e+01 3.4527210344232749e+01 -1.0841126937905572e+02 0 0 0
2930 84 1 0.0000000000000000e+00 -8.1561740506413031e+01 3.3100559702704025e+01 -1.0323765964322308e+02 0 0 0
3011 87 2 0.0000000000000000e+00 -5.9678028671519385e+01 4.0651586452495572e+01 -1.0396650639096606e+02 0 0 0
3013 87 2 0.0000000000000000e+00 -5.3376429696421937e+01 2.8529080235940224e+01 -1.1161406251495055e+02 0 0 0
3012 87 2 0.0000000000000000e+00 -5.1330184967133519e+01 3.6756762053140264e+01 -1.0653080427731408e+02 0 0 0
5086 146 3 0.0000000000000000e+00 -3.1713284150750045e+01 3.9878615227153063e+01 -1.1469180943562861e+02 0 0 0
5351 153 4 0.0000000000000000e+00 -3.3310964087321992e+01 3.9141033745771630e+01 -1.0373370880352375e+02 0 0 0
5352 153 3 0.0000000000000000e+00 -3.5148635691661212e+01 2.9245204808296201e+01 -1.0399263895307209e+02 0 0 0
6878 197 3 0.0000000000000000e+00 -1.3982018276894331e+02 5.2885363205624529e+01 -1.0471696518332145e+02 0 0 0
1741 50 2 0.0000000000000000e+00 -1.2369847278840864e+02 5.1107327558879767e+01 -1.0442971946374503e+02 0 0 0
1742 50 2 0.0000000000000000e+00 -1.1989165022819429e+02 4.2844459697689423e+01 -1.0798034331885771e+02 0 0 0
2929 84 2 0.0000000000000000e+00 -8.5091248008815256e+01 4.2056426158139701e+01 -1.0641935075940661e+02 0 0 0
3193 92 2 0.0000000000000000e+00 -9.5200314771429035e+01 4.4931738910703793e+01 -1.1342293304958835e+02 0 0 0
2928 84 2 0.0000000000000000e+00 -8.3683718127154890e+01 5.1034499628725399e+01 -1.0861659291947859e+02 0 0 0
5908 169 4 0.0000000000000000e+00 -7.3912294477975820e+01 4.7893311443965501e+01 -1.1359213545850410e+02 0 0 0
5907 169 4 0.0000000000000000e+00 -7.5898398912838488e+01 4.7907646817267192e+01 -1.0343330180423493e+02 0 0 0
6265 179 4 0.0000000000000000e+00 -5.7943610630139972e+01 -1.0842894557515061e+02 -1.0037697436207439e+02 0 0 0
6264 179 4 0.0000000000000000e+00 -5.9494338760551990e+01 -1.0818148525319630e+02 -9.0859137739037934e+01 0 0 0
6260 179 4 0.0000000000000000e+00 -8.2697102934717691e+01 -8.4375967367301925e+01 -8.9669481041444456e+01 0 0 0
2093 60 2 0.0000000000000000e+00 -7.2459182720003440e+01 -8.8149639297364700e+01 -9.5248565980785486e+01 0 0 0
2094 60 2 0.0000000000000000e+00 -6.6198540206751815e+01 -8.2582619070444665e+01 -8.9297688277202198e+01 0 0 0
2095 60 2 0.0000000000000000e+00 -6.1912407733000215e+01 -8.1865050332745014e+01 -9.8463242379981949e+01 0 0 0
6257 179 4 0.0000000000000000e+00 -1.0441306098029686e+02 -6.7416664350108093e+01 -8.8466479855164280e+01 0 0 0
6258 179 4 0.0000000000000000e+00 -9.4465594788834750e+01 -6.9340145008463850e+01 -8.9511018717811368e+01 0 0 0
6259 179 4 0.0000000000000000e+00 -8.8149047708589279e+01 -7.6865883993188731e+01 -8.7885923160126907e+01 0 0 0
6250 179 4 0.0000000000000000e+00 -8.0485212575401633e+01 -7.5911864138526980e+01 -9.5237527421026655e+01 0 0 0
6249 179 4 0.0000000000000000e+00 -7.3924760497498497e+01 -7.5117142053753099e+01 -8.8218870947707444e+01 0 0 0
6248 179 3 0.0000000000000000e+00 -6.6761645543754341e+01 -7.1602574344668000e+01 -9.4386682516889479e+01 0 0 0
2810 81 2 0.0000000000000000e+00 -5.3394992679889178e+01 -7.3676318509828604e+01 -8.9731710220182038e+01 0 0 0
2809 81 2 0.0000000000000000e+00 -4.6487736284082487e+01 -7.6399732660140444e+01 -9.6732072375174013e+01 0 0 0
6328 181 4 0.0000000000000000e+00 -2.8800725169171528e+01 -7.8921037979113734e+01 -9.8568745856451969e+01 0 0 0
6329 181 4 0.0000000000000000e+00 -3.2105622742464391e+01 -7.4672306840711272e+01 -9.0186453484288748e+01 0 0 0
6256 179 4 0.0000000000000000e+00 -1.0742982089809210e+02 -5.7958289616537613e+01 -9.0605890488191690e+01 0 0 0
2819 81 2 0.0000000000000000e+00 -8.0956449895415091e+01 -5.9509447779692657e+01 -9.3145991122518282e+01 0 0 0
2818 81 1 0.0000000000000000e+00 -7.0880440058246734e+01 -6.0703509445439735e+01 -9.5177786222974603e+01 0 0 0
2817 81 2 0.0000000000000000e+00 -6.1411634999495789e+01 -5.8088534565395278e+01 -9.7559460105021714e+01 0 0 0
6231 179 4 0.0000000000000000e+00 -4.6678155009600886e+01 -6.4596156517057750e+01 -9.5304174836840858e+01 0 0 0
2816 81 2 0.0000000000000000e+00 -5.2553489921092059e+01 -5.6427575282515377e+01 -9.4968889133773629e+01 0 0 0
2815 81 2 0.0000000000000000e+00 -4.3791863219612146e+01 -5.3375659433899322e+01 -9.1587871364886396e+01 0 0 0
2807 81 2 0.0000000000000000e+00 -3.7336814569768521e+01 -6.2306208919844607e+01 -9.9679591816287711e+01 0 0 0
2534 73 2 0.0000000000000000e+00 -1.1938840920012049e+02 -4.8496475964516058e+01 -9.8136857957796678e+01 0 0 0
2535 73 2 0.0000000000000000e+00 -1.1435493962134295e+02 -4.6776935513797866e+01 -8.8730218417512106e+01 0 0 0