LAMMPS data file via write_data, version 5 Jun 2019, timestep = 500000000

7000 atoms
4 atom types
7284 bonds
3 bond types
6600 angles
2 angle types

-5.0000000000000000e+02 5.0000000000000000e+02 xlo xhi
-5.0000000000000000e+02 5.0000000000000000e+02 ylo yhi
-5.0000000000000000e+02 5.0000000000000000e+02 zlo zhi

Masses

1 1000
2 1000
3 1000
4 1000

Pair Coeffs # lj/cut

1 0.296 10
2 0.296 10
3 0.296 10
4 0.296 10

Angle Coeffs # cosine

1 2
2 2

Atoms # full

1785 51 2 0.0000000000000000e+00 -1.6140016516375908e+01 2.0597959136599908e+01 -1.8871871321457905e+02 0 0 0
5453 156 4 0.0000000000000000e+00 -2.8618204362606999e+01 6.1854672312536145e+00 -1.6032127787745995e+02 0 0 0
5452 156 4 0.0000000000000000e+00 -3.4232020531867541e+01 1.3327705432446360e+01 -1.6298186241181364e+02 0 0 0
3028 87 1 0.0000000000000000e+00 -2.1341296290863255e+01 1.5083183184589190e+01 -1.6246924576138238e+02 0 0 0
3029 87 2 0.0000000000000000e+00 -1.2431991277827260e+01 1.1983970367721474e+01 -1.5895363658808873e+02 0 0 0
5450 156 3 0.0000000000000000e+00 -4.3655016040542876e+01 2.9349852242299207e+01 -1.5903867651310230e+02 0 0 0
5451 156 4 0.0000000000000000e+00 -3.6368615285543548e+01 2.3419140539879294e+01 -1.6362969596217940e+02 0 0 0
3026 87 2 0.0000000000000000e+00 -3.0088303440354370e+01 3.3546299895272085e+01 -1.6138084614773692e+02 0 0 0
3027 87 2 0.0000000000000000e+00 -2.4169385359437197e+01 2.4790099228439516e+01 -1.6212067113913142e+02 0 0 0
2660 76 2 0.0000000000000000e+00 -7.0671938281724195e+01 -3.5661269198301802e+01 -1.5740240042373281e+02 0 0 0
2659 76 2 0.0000000000000000e+00 -7.0594914694858446e+01 -4.2139865623084958e+01 -1.4930531426052988e+02 0 0 0
5454 156 4 0.0000000000000000e+00 -2.0747076376608099e+01 4.8321273639259816e+00 -1.5485931284444831e+02 0 0 0
5455 156 4 0.0000000000000000e+00 -1.4334145727752365e+01 2.7706840855722130e+00 -1.4807517517504812e+02 0 0 0
2652 76 2 0.0000000000000000e+00 -5.1273445971070394e+01 9.6961893815077786e+00 -1.4720039898874708e+02 0 0 0
2651 76 2 0.0000000000000000e+00 -4.4183842602313007e+01 1.1735383615652484e+01 -1.5349560341458204e+02 0 0 0
3199 92 2 0.0000000000000000e+00 -3.6845107661253294e+01 9.7740543644343170e+00 -1.4541764057609791e+02 0 0 0
3200 92 2 0.0000000000000000e+00 -2.8683254813012418e+01 1.2720364376671304e+01 -1.5001487181452495e+02 0 0 0
3201 92 2 0.0000000000000000e+00 -2.0331020354946823e+01 1.8379566293904766e+01 -1.4919037441306392e+02 0 0 0
2650 76 1 0.0000000000000000e+00 -3.8955515217315018e+01 2.0366709783317372e+01 -1.5326718488774966e+02 0 0 0
5449 156 4 0.0000000000000000e+00 -4.9160860213562124e+01 3.2954469744024145e+01 -1.5104887707258021e+02 0 0 0
2649 76 2 0.0000000000000000e+00 -3.0918276249806006e+01 2.6101028625856703e+01 -1.5187228647309428e+02 0 0 0
2647 76 2 0.0000000000000000e+00 -1.3547965831185168e+01 3.1602064035823698e+01 -1.4826105779247871e+02 0 0 0
2648 76 2 0.0000000000000000e+00 -2.2391224940147350e+01 3.1377010814538206e+01 -1.5293119764724594e+02 0 0 0
6053 173 4 0.0000000000000000e+00 -7.6189613970008523e+01 -3.9245576736565788e+01 -1.3109866357470133e+02 0 0 0
2658 76 2 0.0000000000000000e+00 -7.2152332185686191e+01 -3.5738673315492647e+01 -1.4195217313651864e+02 0 0 0
2555 73 2 0.0000000000000000e+00 -1.0931091268952467e+02 -3.1754897632352151e+01 -1.3352844865966591e+02 0 0 0
2657 76 1 0.0000000000000000e+00 -7.4568433132344595e+01 -2.7529197858825704e+01 -1.3710736710717111e+02 0 0 0
2656 76 2 0.0000000000000000e+00 -7.0083616950428180e+01 -2.1079060584159087e+01 -1.4297540474804120e+02 0 0 0
6052 173 3 0.0000000000000000e+00 -6.8280057624961572e+01 -3.3915667540851203e+01 -1.3023567214831655e+02 0 0 0
2655 76 2 0.0000000000000000e+00 -6.6167469883451972e+01 -1.1761924024410964e+01 -1.4092168145100246e+02 0 0 0
5907 169 4 0.0000000000000000e+00 -7.5132399656831865e+01 -2.3068514731690382e+00 -1.3377693032689811e+02 0 0 0
2654 76 2 0.0000000000000000e+00 -6.4613825883950796e+01 -2.1897494248376304e+00 -1.3843949811793718e+02 0 0 0
2653 76 2 0.0000000000000000e+00 -5.6601123277130426e+01 3.2792834614753010e+00 -1.4096686311840060e+02 0 0 0
5438 156 4 0.0000000000000000e+00 -5.6913753808088231e+01 3.4817150284586473e+00 -1.3027251399837183e+02 0 0 0
5908 169 4 0.0000000000000000e+00 -7.2907090449772411e+01 6.4284383872424202e+00 -1.3897352200334225e+02 0 0 0
5909 169 4 0.0000000000000000e+00 -7.7911243773991956e+01 1.1935023185042665e+01 -1.3256999531850099e+02 0 0 0
3197 92 2 0.0000000000000000e+00 -5.3212189821336771e+01 1.7938940551733122e+01 -1.3900392086212668e+02 0 0 0
3198 92 2 0.0000000000000000e+00 -4.4084942675865868e+01 1.5343338642613142e+01 -1.4204887333111836e+02 0 0 0
5437 156 4 0.0000000000000000e+00 -5.0831084269857953e+01 1.1482620942154648e+01 -1.3295689557234212e+02 0 0 0
5436 156 3 0.0000000000000000e+00 -4.5736036222580175e+01 1.9763676600711943e+01 -1.3091309907770338e+02 0 0 0
3202 92 2 0.0000000000000000e+00 -2.0020294285464900e+01 2.0018018169711567e+01 -1.3930402001102306e+02 0 0 0
5457 156 3 0.0000000000000000e+00 -1.2411632362227939e+01 1.5128365811699391e+01 -1.3674623096156657e+02 0 0 0
6507 186 3 0.0000000000000000e+00 -1.5199522243026399e+02 3.3271372978277469e+01 -1.3288154270122493e+02 0 0 0
6508 186 4 0.0000000000000000e+00 -1.4333185649161999e+02 2.9241578240489194e+01 -1.3115827970234849e+02 0 0 0
2490 72 2 0.0000000000000000e+00 -1.3378368061093653e+02 2.3798321558145091e+01 -1.3048765790243053e+02 0 0 0
2489 72 1 0.0000000000000000e+00 -1.2818574179064854e+02 3.1979969969156087e+01 -1.3085835420701437e+02 0 0 0
5444 156 4 0.0000000000000000e+00 -6.8927835284075357e+01 2.6304026583064967e+01 -1.3382949768197517e+02 0 0 0
3196 92 1 0.0000000000000000e+00 -5.7051347572021889e+01 2.0567615224073819e+01 -1.3074104469376195e+02 0 0 0
5435 156 4 0.0000000000000000e+00 -4.2337185494483101e+01 2.6853147171911967e+01 -1.3693637063728170e+02 0 0 0
5434 156 4 0.0000000000000000e+00 -3.8694466709052733e+01 3.3509589341976451e+01 -1.4357511312061408e+02 0 0 0
3203 92 1 0.0000000000000000e+00 -1.2720281457050563e+01 2.5875006524496392e+01 -1.3604376272377698e+02 0 0 0
6055 173 4 0.0000000000000000e+00 -8.2835436573334206e+01 -5.4896042863783187e+01 -1.2511025950991507e+02 0 0 0
4025 115 4 0.0000000000000000e+00 -4.3370983323989762e+01 -5.5725340455652734e+01 -1.1786466905542039e+02 0 0 0
2553 73 2 0.0000000000000000e+00 -1.0229311385460478e+02 -4.0463827028190316e+01 -1.2013713681767673e+02 0 0 0
6054 173 4 0.0000000000000000e+00 -8.2454853041085485e+01 -4.5476831210757190e+01 -1.2655392743310811e+02 0 0 0
6262 179 3 0.0000000000000000e+00 -9.0141014517030854e+01 -4.1264181449058135e+01 -1.1963222201771958e+02 0 0 0
2554 73 2 0.0000000000000000e+00 -1.0930504311601418e+02 -3.4465115526744384e+01 -1.2416181461299760e+02 0 0 0
6263 179 4 0.0000000000000000e+00 -9.4022793950657089e+01 -3.4412619818374040e+01 -1.2585188269359905e+02 0 0 0
6264 179 4 0.0000000000000000e+00 -1.0042374590014377e+02 -2.8240963860251451e+01 -1.2054648012787206e+02 0 0 0
6051 173 4 0.0000000000000000e+00 -6.0241076710573815e+01 -2.9597420387775387e+01 -1.2646854682214760e+02 0 0 0
6050 173 4 0.0000000000000000e+00 -5.1803986045520858e+01 -2.3683717952618668e+01 -1.2672335502468852e+02 0 0 0
6049 173 4 0.0000000000000000e+00 -4.5933506950688624e+01 -2.6234373308110964e+01 -1.1908355145354096e+02 0 0 0
5906 169 4 0.0000000000000000e+00 -7.1939854231282013e+01 -1.0243402040143376e+01 -1.2739184070657568e+02 0 0 0
5905 169 3 0.0000000000000000e+00 -7.8635270386732373e+01 -1.2205195551094786e+01 -1.2032423117562969e+02 0 0 0
5440 156 4 0.0000000000000000e+00 -7.4778748950385506e+01 -1.6042642106744687e+00 -1.2420861095595089e+02 0 0 0
5439 156 4 0.0000000000000000e+00 -6.6801669645503424e+01 2.8536493367484290e+00 -1.2840072376107034e+02 0 0 0
5441 156 4 0.0000000000000000e+00 -7.5902934195431030e+01 4.5684676628789491e+00 -1.1671412419911947e+02 0 0 0
3388 97 2 0.0000000000000000e+00 -6.5173551130328590e+01 -7.0390894935789268e+00 -1.2140121264121413e+02 0 0 0
3387 97 2 0.0000000000000000e+00 -6.3329685055943330e+01 1.9304824635749334e+00 -1.1852667914530160e+02 0 0 0
2218 64 2 0.0000000000000000e+00 -3.2011411207512161e+01 -5.9229571121234752e+00 -1.1765960989528119e+02 0 0 0
2217 64 2 0.0000000000000000e+00 -2.9890850629667582e+01 4.1396061764058940e+00 -1.1657267366923605e+02 0 0 0
1634 47 2 0.0000000000000000e+00 -1.8186983812805405e+01 5.9645417996028769e+00 -1.1781904120920940e+02 0 0 0
2491 72 2 0.0000000000000000e+00 -1.3674956993145793e+02 1.5714336707393384e+01 -1.2618095775028048e+02 0 0 0
2492 72 2 0.0000000000000000e+00 -1.2660337967450511e+02 1.7391213905606225e+01 -1.2598654014169854e+02 0 0 0
5910 169 4 0.0000000000000000e+00 -8.2450512980964376e+01 7.1653979083304282e+00 -1.2577286571563118e+02 0 0 0
5911 169 4 0.0000000000000000e+00 -8.6725850762879276e+01 1.2286050900436804e+01 -1.1905379560460445e+02 0 0 0
5443 156 3 0.0000000000000000e+00 -6.8026330656630194e+01 1.8556889756109843e+01 -1.2730080409949642e+02 0 0 0
5442 156 4 0.0000000000000000e+00 -7.1935824651042338e+01 1.3943659565983030e+01 -1.1920686870581272e+02 0 0 0
3385 97 1 0.0000000000000000e+00 -5.2175414404721906e+01 1.4739578222597366e+01 -1.2291766549603093e+02 0 0 0
3386 97 2 0.0000000000000000e+00 -6.1151541235249439e+01 1.0447612000714059e+01 -1.2395165525448368e+02 0 0 0
1633 47 2 0.0000000000000000e+00 -1.5451031243947911e+01 7.8520911390715504e+00 -1.2783646775188970e+02 0 0 0
6509 186 4 0.0000000000000000e+00 -1.4209131850349894e+02 3.0190252483816781e+01 -1.2090750316990160e+02 0 0 0
6528 187 3 0.0000000000000000e+00 -1.2820567405397838e+02 2.9552572663018079e+01 -1.1958314133940210e+02 0 0 0
2493 72 2 0.0000000000000000e+00 -1.1816779845436308e+02 2.1837636624048052e+01 -1.2314627122088119e+02 0 0 0
2494 72 2 0.0000000000000000e+00 -1.1026027870763144e+02 2.7587379171415073e+01 -1.2241033874815494e+02 0 0 0
2495 72 2 0.0000000000000000e+00 -1.0270107254177684e+02 3.2925836202901237e+01 -1.1858189548560624e+02 0 0 0
3195 92 2 0.0000000000000000e+00 -5.9781092105646309e+01 2.9086819494255053e+01 -1.2597769266921244e+02 0 0 0
3383 97 2 0.0000000000000000e+00 -4.4113296663612587e+01 2.8409161283166551e+01 -1.2303659839291613e+02 0 0 0
3384 97 2 0.0000000000000000e+00 -5.1650927895101745e+01 2.3825691082240130e+01 -1.1908464023239694e+02 0 0 0
671 20 2 0.0000000000000000e+00 -3.6458300312573705e+01 2.9783085209242159e+01 -1.1711160252413612e+02 0 0 0
672 20 2 0.0000000000000000e+00 -2.6731369450444625e+01 3.0817173769735422e+01 -1.1744447351349984e+02 0 0 0
1514 44 2 0.0000000000000000e+00 -4.2401659716498251e+01 -5.6624589248741913e+01 -1.0703893053677299e+02 0 0 0
4024 115 4 0.0000000000000000e+00 -4.5187003088268227e+01 -4.8623059077926811e+01 -1.1188883367592565e+02 0 0 0
1512 44 2 0.0000000000000000e+00 -2.9427852670362537e+01 -5.2346221046348241e+01 -1.1272947149417708e+02 0 0 0
1513 44 2 0.0000000000000000e+00 -3.3647815434143979e+01 -6.1305155045527854e+01 -1.1127127757277229e+02 0 0 0
1622 47 2 0.0000000000000000e+00 -1.5210126692485554e+01 -5.3570866685214398e+01 -1.0736949538797980e+02 0 0 0
2552 73 1 0.0000000000000000e+00 -9.8124088343968182e+01 -4.5416762337324158e+01 -1.1297195785795988e+02 0 0 0
2551 73 2 0.0000000000000000e+00 -9.4187076242463036e+01 -4.5442797134072549e+01 -1.0330699714686510e+02 0 0 0
6261 179 4 0.0000000000000000e+00 -8.4644730592688731e+01 -4.4112552568541041e+01 -1.1109098616055252e+02 0 0 0
4023 115 4 0.0000000000000000e+00 -4.1646971566919390e+01 -4.1777413684268758e+01 -1.0575183140862504e+02 0 0 0
1511 44 2 0.0000000000000000e+00 -2.5333933771066949e+01 -4.3544144551691538e+01 -1.1518575666867049e+02 0 0 0
1510 44 2 0.0000000000000000e+00 -3.2372984130124188e+01 -3.6132748082400326e+01 -1.1517141895559752e+02 0 0 0
2222 64 2 0.0000000000000000e+00 -2.4912709074097094e+01 -3.7080086594428543e+01 -1.0543102243095421e+02 0 0 0
2835 81 2 0.0000000000000000e+00 -1.3821372957137408e+01 -3.9033816476345024e+01 -1.0845743529321324e+02 0 0 0
6265 179 4 0.0000000000000000e+00 -1.0757470403856730e+02 -2.6029976488065451e+01 -1.1381456335331107e+02 0 0 0
5561 159 4 0.0000000000000000e+00 -1.0479847444230987e+02 -2.6419406515204724e+01 -1.0496965868229336e+02 0 0 0
5562 159 3 0.0000000000000000e+00 -9.5777450659395313e+01 -2.8491379004933965e+01 -1.0728688528991302e+02 0 0 0
5563 159 4 0.0000000000000000e+00 -8.8384117608965440e+01 -2.1813012682690811e+01 -1.0515603795530080e+02 0 0 0
1507 44 2 0.0000000000000000e+00 -5.6603601895340248e+01 -3.2675440896383677e+01 -1.0289082472657857e+02 0 0 0
1508 44 2 0.0000000000000000e+00 -4.8426042270899117e+01 -3.0957761813570677e+01 -1.0837553991229422e+02 0 0 0
1509 44 1 0.0000000000000000e+00 -3.9964187445732044e+01 -3.0688132987900175e+01 -1.1265974995430766e+02 0 0 0
6048 173 4 0.0000000000000000e+00 -5.1077211753856425e+01 -2.1353576181731682e+01 -1.1176572526067068e+02 0 0 0
2221 64 2 0.0000000000000000e+00 -2.7366013247705439e+01 -2.7981509833991911e+01 -1.0802905123880512e+02 0 0 0
2334 67 2 0.0000000000000000e+00 -1.4024605993823272e+01 -2.6068658133128750e+01 -1.0755858183054235e+02 0 0 0
2521 73 2 0.0000000000000000e+00 -1.2891166528239219e+02 -1.5850230268994514e+01 -1.1063292952120032e+02 0 0 0
2522 73 2 0.0000000000000000e+00 -1.2042949419540614e+02 -1.9130466496834234e+01 -1.0850163283277976e+02 0 0 0
5904 169 4 0.0000000000000000e+00 -7.5644404505224060e+01 -1.5750178245868668e+01 -1.1146161129624005e+02 0 0 0
3390 97 2 0.0000000000000000e+00 -6.4878796598162751e+01 -1.8970729804671659e+01 -1.0704323810191103e+02 0 0 0
3389 97 2 0.0000000000000000e+00 -6.4220461052114686e+01 -1.5143929102935399e+01 -1.1626337661870016e+02 0 0 0
6047 173 4 0.0000000000000000e+00 -5.2386985643508773e+01 -1.4532325878707736e+01 -1.0437728358647924e+02 0 0 0
2220 64 2 0.0000000000000000e+00 -2.8640151611816584e+01 -1.9054760448783611e+01 -1.1219580357632823e+02 0 0 0
2219 64 2 0.0000000000000000e+00 -2.3987125812238503e+01 -1.0183543072393361e+01 -1.1284103272336182e+02 0 0 0
2333 67 2 0.0000000000000000e+00 -1.1723664218935472e+01 -1.7398847636638418e+01 -1.1023420527317934e+02 0 0 0
6532 187 4 0.0000000000000000e+00 -1.0766363530733514e+02 5.6672511411234838e+00 -1.0606756556557177e+02 0 0 0
3187 92 2 0.0000000000000000e+00 -9.7249794608128369e+01 2.7806468358552530e+00 -1.0750339589249151e+02 0 0 0
3186 92 2 0.0000000000000000e+00 -1.0261629018318936e+02 -4.1485160420546636e+00 -1.1056950831322369e+02 0 0 0
2924 84 2 0.0000000000000000e+00 -8.2672084754580482e+01 -5.5338319341745690e+00 -1.0771704347580804e+02 0 0 0
2922 84 2 0.0000000000000000e+00 -6.5800112396204582e+01 -5.3405559579352238e+00 -1.0972983364894141e+02 0 0 0
2923 84 1 0.0000000000000000e+00 -7.4658049592256006e+01 -5.0690443682427704e+00 -1.1255788608403877e+02 0 0 0
805 23 2 0.0000000000000000e+00 -7.7796844913809650e+01 3.1854941896199409e+00 -1.0403111108092159e+02 0 0 0
666 20 2 0.0000000000000000e+00 -6.4368347234293410e+01 3.7257458231236695e+00 -1.0642358804496088e+02 0 0 0
5142 147 3 0.0000000000000000e+00 -4.4518853868884626e+01 3.8893747006167478e+00 -1.0811240193591343e+02 0 0 0
2216 64 1 0.0000000000000000e+00 -3.3739360534626499e+01 1.2682711814991614e+00 -1.0802866818252593e+02 0 0 0
1635 47 1 0.0000000000000000e+00 -1.6235544951410347e+01 3.5718262665420477e+00 -1.0837200748491038e+02 0 0 0
6530 187 4 0.0000000000000000e+00 -1.2616184321449994e+02 1.2492160591561166e+01 -1.1023674990143503e+02 0 0 0
6531 187 4 0.0000000000000000e+00 -1.1738015747454314e+02 7.0925557913803852e+00 -1.0890783835224940e+02 0 0 0
3188 92 2 0.0000000000000000e+00 -8.9243640886496991e+01 8.7292298701695401e+00 -1.0848176522345345e+02 0 0 0
3189 92 1 0.0000000000000000e+00 -8.1083963071539600e+01 1.4340866894738712e+01 -1.0774856457601757e+02 0 0 0
667 20 2 0.0000000000000000e+00 -5.8815374532485087e+01 1.2204831613910176e+01 -1.0577631758214862e+02 0 0 0
5141 147 4 0.0000000000000000e+00 -3.7262278848142287e+01 1.0856487325987048e+01 -1.1089632019296657e+02 0 0 0
6503 186 4 0.0000000000000000e+00 -1.4642275453457063e+02 3.0049279652268016e+01 -1.0890084127658812e+02 0 0 0
6510 186 4 0.0000000000000000e+00 -1.3858165055118482e+02 2.3462998994970249e+01 -1.1378278392553320e+02 0 0 0
6529 187 4 0.0000000000000000e+00 -1.2802712995510473e+02 2.0282692499436948e+01 -1.1517490442936334e+02 0 0 0
2908 84 2 0.0000000000000000e+00 -1.2913010362730145e+02 2.6435144436880773e+01 -1.0430516969175612e+02 0 0 0
2910 84 2 0.0000000000000000e+00 -1.1878072380593004e+02 2.8346665009703337e+01 -1.0287455891425309e+02 0 0 0
2911 84 2 0.0000000000000000e+00 -1.1083574516628559e+02 2.2693602120449096e+01 -1.0289799259623999e+02 0 0 0
5912 169 3 0.0000000000000000e+00 -8.7658260079890937e+01 2.0563174094494620e+01 -1.1361393066628214e+02 0 0 0
5913 169 4 0.0000000000000000e+00 -9.1046749999247098e+01 2.9275660670256105e+01 -1.1080695257549667e+02 0 0 0
3190 92 2 0.0000000000000000e+00 -7.4321228586499586e+01 2.0364471481957196e+01 -1.0330544530487113e+02 0 0 0
3191 92 2 0.0000000000000000e+00 -7.2497917388891153e+01 2.9748456919190865e+01 -1.0547607258558710e+02 0 0 0
3610 104 4 0.0000000000000000e+00 -5.6550518815787086e+01 3.3403460174443921e+01 -1.1382256772783956e+02 0 0 0
668 20 2 0.0000000000000000e+00 -5.6551765636536906e+01 2.1654129630033342e+01 -1.0809098389785244e+02 0 0 0
3609 104 3 0.0000000000000000e+00 -5.5858793364204935e+01 3.3526491448555312e+01 -1.0382060691717828e+02 0 0 0
670 20 2 0.0000000000000000e+00 -4.2984293090152448e+01 3.3148624101017113e+01 -1.1051013890866486e+02 0 0 0
669 20 1 0.0000000000000000e+00 -4.8015343408933937e+01 2.5619698996599894e+01 -1.0464491576133679e+02 0 0 0
5140 147 4 0.0000000000000000e+00 -3.5784269187218243e+01 2.1060339500497999e+01 -1.1039212336096701e+02 0 0 0
673 20 2 0.0000000000000000e+00 -1.7467527045281798e+01 3.0641387251663364e+01 -1.1397132009530083e+02 0 0 0
674 20 2 0.0000000000000000e+00 -1.2159671298343735e+01 2.7282804264942357e+01 -1.0604837364416487e+02 0 0 0
6231 179 4 0.0000000000000000e+00 -4.2210413081129772e+01 -1.0645497033988521e+02 -9.4772171051164946e+01 0 0 0
6232 179 4 0.0000000000000000e+00 -3.9748004072407454e+01 -9.8349325723297895e+01 -8.9228473086113084e+01 0 0 0
1617 47 2 0.0000000000000000e+00 -4.3183470423365804e+01 -7.5813279000886340e+01 -9.1657565395241960e+01 0 0 0
1618 47 2 0.0000000000000000e+00 -3.3677106907775411e+01 -7.6579840692057033e+01 -8.9113146560600441e+01 0 0 0
1619 47 2 0.0000000000000000e+00 -2.4157727009501695e+01 -7.7688677829017877e+01 -9.2830332194036785e+01 0 0 0
1615 47 2 0.0000000000000000e+00 -5.9428348381926561e+01 -6.5985698390031970e+01 -9.6595191072274176e+01 0 0 0
1616 47 2 0.0000000000000000e+00 -5.1543920170674582e+01 -7.1997703856116061e+01 -9.5725778139136452e+01 0 0 0
1620 47 2 0.0000000000000000e+00 -2.0603599831825314e+01 -6.8348980999943848e+01 -9.5529759619915993e+01 0 0 0
2550 73 2 0.0000000000000000e+00 -9.3869043241524565e+01 -4.8675464350673224e+01 -9.4878060139954826e+01 0 0 0
2549 73 2 0.0000000000000000e+00 -8.4975276664666808e+01 -5.2077156907665795e+01 -9.8322090320636278e+01 0 0 0
1614 47 1 0.0000000000000000e+00 -6.0978004771839025e+01 -5.6076003914398655e+01 -9.6801574718793177e+01 0 0 0
1515 44 2 0.0000000000000000e+00 -4.7555536765313185e+01 -5.0492172192992328e+01 -1.0047564573352157e+02 0 0 0
5324 153 3 0.0000000000000000e+00 -5.0342562717498403e+01 -6.0008971526902769e+01 -9.7753701942819703e+01 0 0 0
5325 153 4 0.0000000000000000e+00 -4.1181114364730348e+01 -6.1872643876468878e+01 -9.4529436919320943e+01 0 0 0
5327 153 4 0.0000000000000000e+00 -3.9247108198804490e+01 -4.9393437199360449e+01 -9.2741090443728439e+01 0 0 0
2224 64 2 0.0000000000000000e+00 -2.7386789605836665e+01 -4.9930772466342582e+01 -9.5545265613974991e+01 0 0 0
2225 64 2 0.0000000000000000e+00 -2.4584002449463277e+01 -5.8068867830336330e+01 -9.0857205603060422e+01 0 0 0
1621 47 1 0.0000000000000000e+00 -1.8186173470427342e+01 -5.9515543331873616e+01 -9.9472781704868822e+01 0 0 0
2833 81 2 0.0000000000000000e+00 -1.5319597716732677e+01 -4.9181197754861110e+01 -9.2768149869115092e+01 0 0 0
6541 187 4 0.0000000000000000e+00 -1.0908798693519935e+02 -3.9288494325188324e+01 -9.4387200640824574e+01 0 0 0
6259 179 4 0.0000000000000000e+00 -8.0871211982192364e+01 -3.6115547631788147e+01 -9.2826430401400287e+01 0 0 0
6260 179 4 0.0000000000000000e+00 -8.2698813221005892e+01 -4.1347161110256231e+01 -1.0099672161366935e+02 0 0 0
2548 73 2 0.0000000000000000e+00 -7.7162587757676420e+01 -4.7730544145295973e+01 -9.3637017353580404e+01 0 0 0
1613 47 2 0.0000000000000000e+00 -6.2330683943086946e+01 -4.8102485793825494e+01 -9.0942679447636735e+01 0 0 0
1517 44 2 0.0000000000000000e+00 -5.1143898967485576e+01 -3.5382294127834705e+01 -8.9569536940427582e+01 0 0 0
1516 44 1 0.0000000000000000e+00 -5.1624362034818851e+01 -4.4664821158188786e+01 -9.4081633577735772e+01 0 0 0
5328 153 4 0.0000000000000000e+00 -4.0865991383160207e+01 -3.9792976799301620e+01 -9.4590474734310618e+01 0 0 0
2223 64 1 0.0000000000000000e+00 -3.2076608780772979e+01 -4.3075268828848429e+01 -1.0163827537919195e+02 0 0 0
2834 81 2 0.0000000000000000e+00 -1.7838535352211689e+01 -4.5827203844134743e+01 -1.0213091032771250e+02 0 0 0
2336 67 2 0.0000000000000000e+00 -2.0841773443011974e+01 -3.9190625972995754e+01 -9.3962356196764887e+01 0 0 0
5560 159 4 0.0000000000000000e+00 -1.0959812269455195e+02 -2.3997779029299934e+01 -9.6680984300131954e+01 0 0 0
918 27 2 0.0000000000000000e+00 -9.4799698197168169e+01 -3.3733209658883275e+01 -9.6791267168455590e+01 0 0 0
6542 187 3 0.0000000000000000e+00 -1.0550124314052940e+02 -3.1460088837133121e+01 -8.9557480727799657e+01 0 0 0
917 27 2 0.0000000000000000e+00 -9.4877960050262161e+01 -2.3672536269427759e+01 -9.5407206935355887e+01 0 0 0
1506 44 2 0.0000000000000000e+00 -6.5873966298842603e+01 -3.2427857957061498e+01 -9.8705326435339984e+01 0 0 0
5330 153 4 0.0000000000000000e+00 -5.2820122195915545e+01 -2.6982061519202297e+01 -9.3984636394776615e+01 0 0 0
3391 97 2 0.0000000000000000e+00 -6.3243345487835327e+01 -2.1043209173764669e+01 -9.7145633478221626e+01 0 0 0
5329 153 4 0.0000000000000000e+00 -4.7514763082999366e+01 -3.3983623530946893e+01 -9.8566255373682495e+01 0 0 0
4022 115 3 0.0000000000000000e+00 -3.7097379333291379e+01 -3.3769287661202902e+01 -1.0186357358016683e+02 0 0 0
4021 115 4 0.0000000000000000e+00 -3.2074252630091294e+01 -2.7247897061031104e+01 -9.5494626257443130e+01 0 0 0
2335 67 1 0.0000000000000000e+00 -1.8796184458821397e+01 -3.1102705824157486e+01 -9.9970320033819476e+01 0 0 0
2819 81 2 0.0000000000000000e+00 -2.1909936684571658e+01 -2.7089830769118269e+01 -9.0820476852399025e+01 0 0 0
6535 187 3 0.0000000000000000e+00 -1.2492559005783244e+02 -9.8679795361859313e+00 -9.0350424037126587e+01 0 0 0
2523 73 2 0.0000000000000000e+00 -1.1593400104580078e+02 -1.2579186160389416e+01 -1.0222901863048833e+02 0 0 0
2524 73 1 0.0000000000000000e+00 -1.1559269634267781e+02 -1.4948685140974707e+01 -9.2855741924237890e+01 0 0 0
2926 84 2 0.0000000000000000e+00 -9.6079164771821425e+01 -1.0402417473180108e+01 -9.7077418631415014e+01 0 0 0
2927 84 2 0.0000000000000000e+00 -1.0364311306184239e+02 -9.1816704515615939e+00 -8.9740384784610157e+01 0 0 0
5564 159 4 0.0000000000000000e+00 -8.3999586793907994e+01 -1.7001045670732235e+01 -9.7857972301499913e+01 0 0 0
5903 169 4 0.0000000000000000e+00 -7.3602388733703989e+01 -1.3632863723293928e+01 -1.0203677627041721e+02 0 0 0
5565 159 4 0.0000000000000000e+00 -7.7301433693092008e+01 -1.2554999725193303e+01 -9.1730401563946884e+01 0 0 0
6046 173 4 0.0000000000000000e+00 -5.6159493451652011e+01 -1.2131549628045303e+01 -9.5447786837088330e+01 0 0 0
5144 147 4 0.0000000000000000e+00 -4.1115558157325090e+01 -9.6094711724512649e+00 -9.6539673522314786e+01 0 0 0
4020 115 4 0.0000000000000000e+00 -3.0048086381675038e+01 -1.9923463550607629e+01 -8.9098264713697390e+01 0 0 0
5145 147 4 0.0000000000000000e+00 -3.2523595780602697e+01 -1.1344936807161046e+01 -1.0044845100448873e+02 0 0 0
2821 81 2 0.0000000000000000e+00 -2.4451433182955750e+01 -8.4964150197540533e+00 -9.2801380856554644e+01 0 0 0
2820 81 2 0.0000000000000000e+00 -2.0909806000122423e+01 -1.7736292577450143e+01 -9.4341935581866309e+01 0 0 0
6534 187 4 0.0000000000000000e+00 -1.2046874260511827e+02 -3.3324811023355227e+00 -9.6614805783987620e+01 0 0 0
6533 187 4 0.0000000000000000e+00 -1.1168227277932478e+02 -6.2845353922557667e-01 -1.0073375763342005e+02 0 0 0
2925 84 2 0.0000000000000000e+00 -8.9430223536364835e+01 -3.6298454042371353e+00 -1.0046862306186473e+02 0 0 0
5901 169 4 0.0000000000000000e+00 -7.9927087583674719e+01 1.5912467098005307e+00 -9.3263418452540236e+01 0 0 0
5902 169 4 0.0000000000000000e+00 -7.4995771377871250e+01 -4.6853746803125400e+00 -9.9296599692463474e+01 0 0 0
5530 158 4 0.0000000000000000e+00 -6.6776659207973751e+01 3.7759880976436211e+00 -9.5915316919608998e+01 0 0 0
2921 84 2 0.0000000000000000e+00 -6.1784556252135836e+01 -5.8707051300471322e+00 -1.0004068615500107e+02 0 0 0
2920 84 2 0.0000000000000000e+00 -5.6473805982726361e+01 -6.9159551440249778e-01 -9.3571891687549936e+01 0 0 0
5143 147 4 0.0000000000000000e+00 -4.6450753544983662e+01 -2.1593849501087981e+00 -1.0010359990454181e+02 0 0 0
2215 64 2 0.0000000000000000e+00 -3.7787029873370763e+01 4.1942879550410348e+00 -9.9413869486782588e+01 0 0 0
5342 153 4 0.0000000000000000e+00 -3.6005202561013959e+01 5.9613226716779479e+00 -9.0253178277862858e+01 0 0 0
1636 47 2 0.0000000000000000e+00 -1.6021454979354804e+01 -3.3773028020379350e+00 -1.0253194800070828e+02 0 0 0
5344 153 4 0.0000000000000000e+00 -1.7682950000685160e+01 4.3119575886295403e+00 -9.0590809830747588e+01 0 0 0
2906 84 2 0.0000000000000000e+00 -1.3073006841266562e+02 1.1815649809108507e+01 -9.1552015705027046e+01 0 0 0
2907 84 2 0.0000000000000000e+00 -1.2712782956666466e+02 1.9325994227809929e+01 -9.7996321497272604e+01 0 0 0
2912 84 2 0.0000000000000000e+00 -1.0244615690391616e+02 1.7152325337908916e+01 -1.0163484671180495e+02 0 0 0
2913 84 2 0.0000000000000000e+00 -9.6505344292414634e+01 1.0614514131040993e+01 -9.5867093753777738e+01 0 0 0
2914 84 2 0.0000000000000000e+00 -8.9454269931705326e+01 1.7773121149836506e+01 -9.7607691720549411e+01 0 0 0
5900 169 4 0.0000000000000000e+00 -8.0206812095495039e+01 1.0910467076508899e+01 -9.1605540359010419e+01 0 0 0
804 23 2 0.0000000000000000e+00 -7.2220278362121661e+01 1.0150595207443653e+01 -9.9467821590982467e+01 0 0 0
803 23 2 0.0000000000000000e+00 -6.9992038054035831e+01 1.4246801598704037e+01 -9.0634814611114948e+01 0 0 0
2919 84 2 0.0000000000000000e+00 -5.7122727966976257e+01 8.6415040547492836e+00 -9.5052989132874146e+01 0 0 0
2918 84 2 0.0000000000000000e+00 -6.0458148200534787e+01 1.8609417280027657e+01 -9.5362236727539397e+01 0 0 0
2214 64 2 0.0000000000000000e+00 -4.4914271778407546e+01 9.9682771388437779e+00 -9.9881453122331934e+01 0 0 0
2213 64 2 0.0000000000000000e+00 -5.0744231999091021e+01 1.7331649048371414e+01 -9.7398536673090888e+01 0 0 0
5341 153 4 0.0000000000000000e+00 -4.5729636292900651e+01 7.0216861455171591e+00 -8.9307462357134384e+01 0 0 0
1330 38 2 0.0000000000000000e+00 -2.1075454352130787e+01 1.5229101254034710e+01 -1.0231984385129680e+02 0 0 0
1329 38 2 0.0000000000000000e+00 -1.7957636973576253e+01 1.8632191889143190e+01 -9.3192240280163190e+01 0 0 0
5345 153 3 0.0000000000000000e+00 -1.4254425870212796e+01 9.0347371568750727e+00 -9.8855253858407337e+01 0 0 0
489 14 2 0.0000000000000000e+00 -1.5121613485573207e+02 3.2538016379515867e+01 -9.9328661787534330e+01 0 0 0
6502 186 4 0.0000000000000000e+00 -1.4050316886930403e+02 3.1952490585386624e+01 -1.0168804953349351e+02 0 0 0
5894 169 4 0.0000000000000000e+00 -1.0914973761263114e+02 2.8853486144343748e+01 -9.3067553912699736e+01 0 0 0
929 27 2 0.0000000000000000e+00 -9.8045467478316510e+01 2.5793059927662384e+01 -9.0166506121155592e+01 0 0 0
930 27 2 0.0000000000000000e+00 -9.0565247450770286e+01 3.1966430286211082e+01 -9.1167976860185959e+01 0 0 0
2915 84 2 0.0000000000000000e+00 -8.2845851318237862e+01 2.4596296616504294e+01 -1.0028978396300955e+02 0 0 0
2916 84 1 0.0000000000000000e+00 -7.6177825290556285e+01 3.0831362739269629e+01 -9.6507508565366663e+01 0 0 0
2917 84 2 0.0000000000000000e+00 -6.7864972766218344e+01 2.5148636879182494e+01 -9.5713661815051594e+01 0 0 0
2212 64 2 0.0000000000000000e+00 -5.2363338046518400e+01 2.6378968613365650e+01 -9.4000341186898339e+01 0 0 0
5138 147 4 0.0000000000000000e+00 -4.0127653386513607e+01 2.8773628381523618e+01 -9.2703496578143756e+01 0 0 0
5139 147 4 0.0000000000000000e+00 -3.6147401744124117e+01 2.4784447502551558e+01 -1.0159941668700218e+02 0 0 0
3615 104 4 0.0000000000000000e+00 -2.3151265052625043e+01 3.0322727857733359e+01 -9.7278532069772055e+01 0 0 0
3616 104 3 0.0000000000000000e+00 -1.7455206306484175e+01 3.0161765676223382e+01 -8.9695821895042840e+01 0 0 0
2095 60 2 0.0000000000000000e+00 -1.1349397170581268e+01 -1.1244867825550340e+02 -7.6447557445056830e+01 0 0 0
6233 179 4 0.0000000000000000e+00 -4.0015369532294081e+01 -9.3919866486179316e+01 -8.0492044012894524e+01 0 0 0
2233 64 2 0.0000000000000000e+00 -1.2260777970499282e+01 -8.0979512470904723e+01 -8.8499769151802624e+01 0 0 0
2232 64 2 0.0000000000000000e+00 -1.9534262502717244e+01 -8.2993849870604905e+01 -8.1669084009917654e+01 0 0 0
5322 153 4 0.0000000000000000e+00 -4.4427078328199364e+01 -6.4064808561253514e+01 -8.4953451746790464e+01 0 0 0
5321 153 4 0.0000000000000000e+00 -3.5738366570472110e+01 -6.7959990280374569e+01 -8.2438890634979316e+01 0 0 0
2226 64 2 0.0000000000000000e+00 -2.2121536843609423e+01 -6.3129459492398723e+01 -8.2634528172816346e+01 0 0 0
5546 159 4 0.0000000000000000e+00 -9.4545766671591650e+01 -5.1033560808699789e+01 -8.4223864566204043e+01 0 0 0
5545 159 4 0.0000000000000000e+00 -1.0318304782108180e+02 -5.0123622653328766e+01 -7.9170173995611108e+01 0 0 0
5547 159 4 0.0000000000000000e+00 -8.5023924942223545e+01 -4.8421242061082843e+01 -8.5187318398613812e+01 0 0 0