LAMMPS data file via write_data, version 5 Jun 2019, timestep = 500000000

7000 atoms
4 atom types
7281 bonds
3 bond types
6600 angles
2 angle types

-5.0000000000000000e+02 5.0000000000000000e+02 xlo xhi
-5.0000000000000000e+02 5.0000000000000000e+02 ylo yhi
-5.0000000000000000e+02 5.0000000000000000e+02 zlo zhi

Masses

1 1000
2 1000
3 1000
4 1000

Pair Coeffs # lj/cut

1 0.296 10
2 0.296 10
3 0.296 10
4 0.296 10

Angle Coeffs # cosine

1 2
2 2

Atoms # full

5076 146 4 0.0000000000000000e+00 -4.7550590412484702e+01 2.2624301977522858e+01 -1.9919012111089395e+02 0 0 0
5077 146 4 0.0000000000000000e+00 -4.3304219778738059e+01 2.8774363420818748e+01 -1.9298477927073102e+02 0 0 0
6265 179 4 0.0000000000000000e+00 -2.8603717982820143e+01 -3.1030416817943209e+01 -1.7718203728820538e+02 0 0 0
5078 146 4 0.0000000000000000e+00 -3.8958232798958285e+01 3.6485922310441119e+01 -1.8884098035422488e+02 0 0 0
3026 87 2 0.0000000000000000e+00 -4.3281415241948345e+01 3.5700183631661858e+01 -1.7799457403720714e+02 0 0 0
3027 87 2 0.0000000000000000e+00 -4.3746299395338745e+01 2.6209392921136356e+01 -1.8210567649265462e+02 0 0 0
3028 87 1 0.0000000000000000e+00 -3.5454325349294827e+01 2.8611524270661953e+01 -1.7826444967791272e+02 0 0 0
3025 87 2 0.0000000000000000e+00 -5.1142096687048515e+01 4.1509598063285118e+01 -1.7793695007987148e+02 0 0 0
5079 146 3 0.0000000000000000e+00 -3.3132976766096860e+01 3.9441708619481446e+01 -1.8170671191142921e+02 0 0 0
5080 146 4 0.0000000000000000e+00 -2.3556270008882386e+01 3.9012332777054340e+01 -1.8032068462855059e+02 0 0 0
2812 81 2 0.0000000000000000e+00 -3.5676703169510134e+01 -2.2694996752706331e+01 -1.6260495110897011e+02 0 0 0
6264 179 4 0.0000000000000000e+00 -2.2548282524960644e+01 -2.9791828173804923e+01 -1.6923830783264071e+02 0 0 0
2813 81 2 0.0000000000000000e+00 -2.6648628707995837e+01 -2.0215804820852931e+01 -1.6535183768468525e+02 0 0 0
2814 81 2 0.0000000000000000e+00 -2.4583717460182836e+01 -1.8580392434955726e+01 -1.7463339259344329e+02 0 0 0
2815 81 2 0.0000000000000000e+00 -1.9269491652185561e+01 -1.2587430929541144e+01 -1.6907087713356213e+02 0 0 0
3024 87 2 0.0000000000000000e+00 -5.7168590379922669e+01 3.6520509377828382e+01 -1.7131959957578903e+02 0 0 0
3023 87 2 0.0000000000000000e+00 -4.9706713157562042e+01 3.2402444353170125e+01 -1.6620735569178450e+02 0 0 0
3029 87 2 0.0000000000000000e+00 -3.2546795475197726e+01 2.8301012672776839e+01 -1.6878268019581137e+02 0 0 0
5081 146 4 0.0000000000000000e+00 -1.9896634190743953e+01 3.3586666584636959e+01 -1.7310275151591631e+02 0 0 0
1762 51 2 0.0000000000000000e+00 -3.5087491440545982e+01 4.1624881294790988e+01 -1.6835588396642427e+02 0 0 0
1761 51 1 0.0000000000000000e+00 -4.0276965684515716e+01 4.9207027947466820e+01 -1.6418606666542652e+02 0 0 0
1763 51 2 0.0000000000000000e+00 -2.7346402966735226e+01 4.5938168850221388e+01 -1.7196375674075304e+02 0 0 0
4751 136 4 0.0000000000000000e+00 -2.5567988682002611e+01 3.9480992756037310e+01 -1.6477514067413691e+02 0 0 0
6263 179 4 0.0000000000000000e+00 -1.9834273405152409e+01 -2.5268778180015858e+01 -1.6024231536231355e+02 0 0 0
2819 81 2 0.0000000000000000e+00 -2.8916008010206447e+01 -2.3094586714984160e+01 -1.5023715981820285e+02 0 0 0
6536 187 4 0.0000000000000000e+00 -4.9571159900831979e+01 -1.3733386305452166e+01 -1.5397206407974915e+02 0 0 0
2811 81 1 0.0000000000000000e+00 -3.8107651572028665e+01 -1.6574330810682309e+01 -1.5518606768325179e+02 0 0 0
6537 187 4 0.0000000000000000e+00 -4.5716719370121190e+01 -4.8744852001466858e+00 -1.5706592078062312e+02 0 0 0
2818 81 1 0.0000000000000000e+00 -2.3606603390142588e+01 -1.6667513310418617e+01 -1.5643234354645600e+02 0 0 0
2810 81 2 0.0000000000000000e+00 -3.1333847531551800e+01 -1.0021850935836150e+01 -1.5533153205862718e+02 0 0 0
6538 187 4 0.0000000000000000e+00 -4.5361864414668389e+01 5.0666514346382714e+00 -1.5718652734206361e+02 0 0 0
2809 81 2 0.0000000000000000e+00 -2.7828849791043048e+01 -1.0339332722651402e+00 -1.5271799460212830e+02 0 0 0
1365 39 2 0.0000000000000000e+00 -7.5819661549841285e+01 1.7499362624770715e+01 -1.4957015368014495e+02 0 0 0
6539 187 4 0.0000000000000000e+00 -4.3459912260066162e+01 1.4738928664384465e+01 -1.5619232705879963e+02 0 0 0
479 14 2 0.0000000000000000e+00 -7.1086493111375731e+01 2.9790835446295183e+01 -1.5288719585779728e+02 0 0 0
478 14 2 0.0000000000000000e+00 -7.3396828232147286e+01 3.4738593797440842e+01 -1.6129192007960128e+02 0 0 0
3022 87 2 0.0000000000000000e+00 -4.2872365114968702e+01 3.3702705307942026e+01 -1.5920993109473764e+02 0 0 0
3021 87 1 0.0000000000000000e+00 -4.3546429715867191e+01 2.9220851254625103e+01 -1.5004066301872831e+02 0 0 0
3030 87 2 0.0000000000000000e+00 -2.6520059938747213e+01 2.8872011681558110e+01 -1.6084271668163035e+02 0 0 0
3031 87 2 0.0000000000000000e+00 -2.3030252401695787e+01 2.9465872900806058e+01 -1.5140450209879916e+02 0 0 0
477 14 2 0.0000000000000000e+00 -7.4023391234843118e+01 4.4874738249747807e+01 -1.6102788132089987e+02 0 0 0
6226 178 4 0.0000000000000000e+00 -8.4418177958042705e+01 4.9395405760901745e+01 -1.4959832553577419e+02 0 0 0
5442 156 4 0.0000000000000000e+00 -4.3432558562614098e+01 4.2350866058445121e+01 -1.4905113013270494e+02 0 0 0
4750 136 3 0.0000000000000000e+00 -3.3223899711165025e+01 4.1740528858472246e+01 -1.5851670836998471e+02 0 0 0
4749 136 4 0.0000000000000000e+00 -3.2379483281813471e+01 4.6778689097709751e+01 -1.5028534291101039e+02 0 0 0
4752 136 4 0.0000000000000000e+00 -2.1603538401789173e+01 4.7536214481031323e+01 -1.6118159978099985e+02 0 0 0
2821 81 2 0.0000000000000000e+00 -2.7258710889579824e+01 -4.0380669679226614e+01 -1.4138073420193891e+02 0 0 0
2206 64 2 0.0000000000000000e+00 -7.3682236125977241e+01 -3.0820800483930579e+01 -1.4199819643915177e+02 0 0 0
6534 187 4 0.0000000000000000e+00 -4.4786813839813199e+01 -2.4948772709628674e+01 -1.3904711161016937e+02 0 0 0
6535 187 3 0.0000000000000000e+00 -4.5551670124789894e+01 -2.1785971541221745e+01 -1.4844782879605560e+02 0 0 0
2820 81 2 0.0000000000000000e+00 -2.9107936748256961e+01 -3.0438549630256155e+01 -1.4392773551375890e+02 0 0 0
6895 197 4 0.0000000000000000e+00 -1.2546692116900073e+02 -4.5313599340284245e+00 -1.4619700870036425e+02 0 0 0
6894 197 4 0.0000000000000000e+00 -1.1647530171184992e+02 -4.6313599002817414e+00 -1.4183933573862566e+02 0 0 0
1786 52 2 0.0000000000000000e+00 -1.0589883176481044e+02 -1.6946677960524429e+01 -1.3710036870831581e+02 0 0 0
6231 179 4 0.0000000000000000e+00 -7.9777202952322938e+01 -6.4482635516704772e+00 -1.4339634210308404e+02 0 0 0
6232 179 4 0.0000000000000000e+00 -7.4634464093877696e+01 -1.4861143373123616e+01 -1.4654581450588810e+02 0 0 0
6233 179 4 0.0000000000000000e+00 -7.0856742854018790e+01 -1.7079127552317246e+01 -1.3786148771708929e+02 0 0 0
4761 137 4 0.0000000000000000e+00 -6.5738857511669039e+01 -6.5703031212108955e+00 -1.4068420364258967e+02 0 0 0
6545 187 4 0.0000000000000000e+00 -8.7213832388740173e+01 6.4540433743744821e+00 -1.4130712864062937e+02 0 0 0
2808 81 2 0.0000000000000000e+00 -2.7201053954005268e+01 -2.1177779166717459e+00 -1.4261931192815271e+02 0 0 0
1364 39 2 0.0000000000000000e+00 -8.3841795075798430e+01 1.9877711187634041e+01 -1.4394451708995456e+02 0 0 0
6544 187 4 0.0000000000000000e+00 -8.0016890994128531e+01 1.2680029244627480e+01 -1.3711375199669470e+02 0 0 0
6543 187 4 0.0000000000000000e+00 -7.1848364301595623e+01 1.8055296727981215e+01 -1.4022206064472118e+02 0 0 0
6542 187 3 0.0000000000000000e+00 -6.2466075623617840e+01 1.8037152481233356e+01 -1.4294731856246480e+02 0 0 0
6540 187 4 0.0000000000000000e+00 -4.7183243716154351e+01 1.4695539298719707e+01 -1.4721228018332425e+02 0 0 0
6541 187 4 0.0000000000000000e+00 -5.3029057358715527e+01 2.2045539275878113e+01 -1.4202404977135640e+02 0 0 0
3019 87 2 0.0000000000000000e+00 -4.0961620502812238e+01 1.5819488599734779e+01 -1.3675693958595807e+02 0 0 0
3020 87 2 0.0000000000000000e+00 -3.9516611990825560e+01 2.2676515648248969e+01 -1.4377259754276443e+02 0 0 0
5446 156 4 0.0000000000000000e+00 -2.5082846490791759e+01 1.0811330865012829e+01 -1.3703399197340525e+02 0 0 0
5445 156 4 0.0000000000000000e+00 -2.9317038262344305e+01 1.9865668525120956e+01 -1.3853111934145355e+02 0 0 0
5890 169 4 0.0000000000000000e+00 -1.0554082585127966e+02 2.8748150227629264e+01 -1.3965081857107430e+02 0 0 0
5891 169 3 0.0000000000000000e+00 -1.1139158711216007e+02 3.6083962431020957e+01 -1.3727642831530679e+02 0 0 0
5889 169 4 0.0000000000000000e+00 -9.7271248643661210e+01 2.3322641736451125e+01 -1.3873143598936215e+02 0 0 0
1362 39 1 0.0000000000000000e+00 -8.9101382467731554e+01 3.6411000150720511e+01 -1.3909890517462267e+02 0 0 0
5888 169 4 0.0000000000000000e+00 -8.8287883103369296e+01 2.7212917130921593e+01 -1.3562587008717256e+02 0 0 0
1363 39 2 0.0000000000000000e+00 -8.4417199958414997e+01 2.9835037412351173e+01 -1.4369566777780381e+02 0 0 0
480 14 1 0.0000000000000000e+00 -6.7619487267662763e+01 2.8726008324063788e+01 -1.4356139357168522e+02 0 0 0
6230 178 4 0.0000000000000000e+00 -5.3448935601637480e+01 3.2729879088750316e+01 -1.4226796885751062e+02 0 0 0
5443 156 3 0.0000000000000000e+00 -3.9469942162605903e+01 3.6327806593743752e+01 -1.4217314088978051e+02 0 0 0
5444 156 4 0.0000000000000000e+00 -3.4809680794871738e+01 2.8196776934201200e+01 -1.3712061456801365e+02 0 0 0
4746 136 4 0.0000000000000000e+00 -2.3408889379258696e+01 2.7502011006845350e+01 -1.4136096849112050e+02 0 0 0
4747 136 4 0.0000000000000000e+00 -2.3397339683668658e+01 3.6553562465774931e+01 -1.3733214012884096e+02 0 0 0
1361 39 2 0.0000000000000000e+00 -9.0146339324943824e+01 4.6234297669835335e+01 -1.3679118867722352e+02 0 0 0
6227 178 3 0.0000000000000000e+00 -8.1346661511523948e+01 4.1073098858195159e+01 -1.4509295980091434e+02 0 0 0
6229 178 4 0.0000000000000000e+00 -6.1802242958040992e+01 3.7308485113702233e+01 -1.4556085476685453e+02 0 0 0
6228 178 4 0.0000000000000000e+00 -7.1437059507771679e+01 4.0155125753734403e+01 -1.4657402538615082e+02 0 0 0
2924 84 2 0.0000000000000000e+00 -6.5983734295980625e+01 4.2437995176926144e+01 -1.3757184360573891e+02 0 0 0
2925 84 2 0.0000000000000000e+00 -5.6573431124065657e+01 4.4982559070154750e+01 -1.3923493545708547e+02 0 0 0
4748 136 4 0.0000000000000000e+00 -2.6983657157157300e+01 4.4300154051359492e+01 -1.4277615218032167e+02 0 0 0
6328 181 4 0.0000000000000000e+00 -3.1645656674731669e+01 -4.7773597448527887e+01 -1.2800043829176968e+02 0 0 0
3011 87 2 0.0000000000000000e+00 -5.5370959538551801e+01 -3.8262224963473535e+01 -1.2250146285225031e+02 0 0 0
3013 87 2 0.0000000000000000e+00 -4.0104852227371985e+01 -3.6120629028168523e+01 -1.2539889945388711e+02 0 0 0
6327 181 4 0.0000000000000000e+00 -2.2378569392219660e+01 -4.4790433246330899e+01 -1.3024652705627730e+02 0 0 0
6329 181 4 0.0000000000000000e+00 -3.0733380617953422e+01 -3.8111216757869144e+01 -1.2761770610334179e+02 0 0 0
2207 64 2 0.0000000000000000e+00 -6.8060074320786683e+01 -2.9229097810631572e+01 -1.3313947807931277e+02 0 0 0
2208 64 2 0.0000000000000000e+00 -6.4785625742008563e+01 -2.8066997577551934e+01 -1.2420222384402797e+02 0 0 0
6234 179 3 0.0000000000000000e+00 -6.9874221182284430e+01 -1.8934510379441317e+01 -1.2840827779444888e+02 0 0 0
6533 187 4 0.0000000000000000e+00 -4.9814807177328909e+01 -2.7447532473532064e+01 -1.3086852690790082e+02 0 0 0
3014 87 1 0.0000000000000000e+00 -3.3833821243602365e+01 -2.8644072860289363e+01 -1.2335671723448098e+02 0 0 0
6330 181 4 0.0000000000000000e+00 -2.3824084451743296e+01 -3.1555359170568835e+01 -1.3138436293365447e+02 0 0 0
6331 181 4 0.0000000000000000e+00 -2.2168411987474634e+01 -2.2123658519040191e+01 -1.3088462948684614e+02 0 0 0
1787 52 2 0.0000000000000000e+00 -9.7347251635728313e+01 -1.5582038099893628e+01 -1.3298718588693882e+02 0 0 0
1788 52 2 0.0000000000000000e+00 -9.4506514453769114e+01 -6.8900692262822734e+00 -1.3044653241224327e+02 0 0 0
4762 137 4 0.0000000000000000e+00 -7.2088281746196003e+01 -5.5190661946999722e+00 -1.3366666429843818e+02 0 0 0
6513 187 4 0.0000000000000000e+00 -6.1148142185678097e+01 -9.7981878342927828e+00 -1.2486208726420743e+02 0 0 0
6511 187 4 0.0000000000000000e+00 -4.6652130266280409e+01 -1.5308299729350747e+01 -1.3441986145298250e+02 0 0 0
6512 187 4 0.0000000000000000e+00 -5.4720192624011432e+01 -1.5798015009393668e+01 -1.2842389553713696e+02 0 0 0
5124 147 4 0.0000000000000000e+00 -5.0115463740860982e+01 -5.9395256764982927e+00 -1.2446421956543227e+02 0 0 0
5123 147 4 0.0000000000000000e+00 -4.4120384030068998e+01 -1.3294853078894072e+01 -1.2381388007571722e+02 0 0 0
3016 87 2 0.0000000000000000e+00 -3.4930082406398782e+01 -9.5878049216359482e+00 -1.2817070219459302e+02 0 0 0
3015 87 2 0.0000000000000000e+00 -3.3015058335151771e+01 -1.8084744028689432e+01 -1.2287864648630668e+02 0 0 0
487 14 1 0.0000000000000000e+00 -1.1520487746481656e+02 8.4313220240451017e+00 -1.2351140303993580e+02 0 0 0
6893 197 4 0.0000000000000000e+00 -1.1036439467040289e+02 -3.3793003330494717e+00 -1.3348451065233138e+02 0 0 0
6892 197 3 0.0000000000000000e+00 -1.0821670287372419e+02 -1.3519832288046243e+00 -1.2353374073105547e+02 0 0 0
1789 52 1 0.0000000000000000e+00 -9.7452049993965971e+01 1.0384272216796708e+00 -1.2540867527869894e+02 0 0 0
4763 137 4 0.0000000000000000e+00 -8.1460257799749911e+01 -1.5465590264127831e+00 -1.3252893949231654e+02 0 0 0
4764 137 3 0.0000000000000000e+00 -8.6229312128161808e+01 4.4889278027892265e+00 -1.2547521626259471e+02 0 0 0
3017 87 2 0.0000000000000000e+00 -3.4586971298777165e+01 -4.3048061076234340e-01 -1.3030175201797618e+02 0 0 0
3018 87 2 0.0000000000000000e+00 -3.8740113408325655e+01 8.5607782803096946e+00 -1.3006891101437830e+02 0 0 0
2807 81 2 0.0000000000000000e+00 -2.5155341317974209e+01 -2.1656893856456940e+00 -1.3230009682700501e+02 0 0 0
6312 181 4 0.0000000000000000e+00 -2.8343238034081448e+01 7.8139972534886795e+00 -1.2536555257933620e+02 0 0 0
2806 81 2 0.0000000000000000e+00 -1.9912323706718787e+01 4.9384638263841363e-01 -1.2402305519905448e+02 0 0 0
490 14 2 0.0000000000000000e+00 -1.3381488664547231e+02 1.4934384384482282e+01 -1.3543668898980994e+02 0 0 0
489 14 2 0.0000000000000000e+00 -1.3261647699939462e+02 1.2653614271215664e+01 -1.2584323026085094e+02 0 0 0
486 14 2 0.0000000000000000e+00 -1.0737490936303070e+02 1.2261532341032659e+01 -1.2907053897339011e+02 0 0 0
485 14 2 0.0000000000000000e+00 -9.8276774462391757e+01 1.3839508619495993e+01 -1.2969619946576262e+02 0 0 0
484 14 2 0.0000000000000000e+00 -8.8676653752778037e+01 1.3466522974479116e+01 -1.3027250878876183e+02 0 0 0
483 14 2 0.0000000000000000e+00 -8.1638399773464599e+01 1.6524162428024386e+01 -1.2405562005408076e+02 0 0 0
482 14 2 0.0000000000000000e+00 -7.5043641383610023e+01 1.9721631394937727e+01 -1.3091969691681911e+02 0 0 0
2628 76 2 0.0000000000000000e+00 -3.8559870809892054e+01 2.1284953385598854e+01 -1.2443165091945552e+02 0 0 0
6311 181 3 0.0000000000000000e+00 -2.3963133417553330e+01 1.6476590191927958e+01 -1.2767287486275693e+02 0 0 0
2906 84 2 0.0000000000000000e+00 -1.0550088992630555e+02 2.3108578387984888e+01 -1.2908744589406882e+02 0 0 0
2519 72 2 0.0000000000000000e+00 -1.1490693620251724e+02 3.4183512400771868e+01 -1.2526657091301838e+02 0 0 0
5887 169 4 0.0000000000000000e+00 -7.9292033812031022e+01 3.0112951406508703e+01 -1.3087038661237622e+02 0 0 0
481 14 2 0.0000000000000000e+00 -6.7885018448834529e+01 2.6200971718044574e+01 -1.3411668629023856e+02 0 0 0
5908 169 4 0.0000000000000000e+00 -6.2961494420047728e+01 2.4279072329603881e+01 -1.2435810640119236e+02 0 0 0
5886 169 4 0.0000000000000000e+00 -7.0939219768770826e+01 3.3926547408131334e+01 -1.2673921144103309e+02 0 0 0
2627 76 2 0.0000000000000000e+00 -4.9027331276454149e+01 2.3160813784502331e+01 -1.2310640054407996e+02 0 0 0
5909 169 4 0.0000000000000000e+00 -5.9470468759495560e+01 3.1146285650057347e+01 -1.3055651634839131e+02 0 0 0
3191 92 2 0.0000000000000000e+00 -4.4389008637195772e+01 3.5313457530439294e+01 -1.2472810114746893e+02 0 0 0
2629 76 1 0.0000000000000000e+00 -2.9503397891866857e+01 2.5395181687406343e+01 -1.2502580341727422e+02 0 0 0
2630 76 2 0.0000000000000000e+00 -2.0886704601101062e+01 2.8541108382179473e+01 -1.2911689180124773e+02 0 0 0
5892 169 4 0.0000000000000000e+00 -1.1830808551698880e+02 4.3273864264745427e+01 -1.3541477453648946e+02 0 0 0
2520 72 2 0.0000000000000000e+00 -1.1106552648049561e+02 4.2505597730673834e+01 -1.2830718551145745e+02 0 0 0
1359 39 2 0.0000000000000000e+00 -1.0379970263754454e+02 4.8485901508133530e+01 -1.3474460131046112e+02 0 0 0
2922 84 2 0.0000000000000000e+00 -8.1958131826453538e+01 4.4610742819125988e+01 -1.2660660189441867e+02 0 0 0
2923 84 1 0.0000000000000000e+00 -7.5042901253443318e+01 4.1014588003137419e+01 -1.3319880159345684e+02 0 0 0
6184 177 4 0.0000000000000000e+00 -6.2936086087965620e+01 4.6409085714257984e+01 -1.2277606034440478e+02 0 0 0
6185 177 3 0.0000000000000000e+00 -7.1887768102956798e+01 4.9520693110508269e+01 -1.2605458848126554e+02 0 0 0
5911 169 4 0.0000000000000000e+00 -5.2537020635922147e+01 4.9233000694580923e+01 -1.2681305500903950e+02 0 0 0
5910 169 4 0.0000000000000000e+00 -5.4349335176495941e+01 3.9129344694027218e+01 -1.2780912734336164e+02 0 0 0
3193 92 2 0.0000000000000000e+00 -3.6418529582446503e+01 4.5683103103438079e+01 -1.3133652900408583e+02 0 0 0
3192 92 2 0.0000000000000000e+00 -3.5731087340910136e+01 4.1185564731812775e+01 -1.2276093767546961e+02 0 0 0
6530 187 4 0.0000000000000000e+00 -6.9028481241941407e+01 -3.3973967223240784e+01 -1.1226437515447026e+02 0 0 0
3012 87 2 0.0000000000000000e+00 -4.6373759980372455e+01 -4.0293482562774237e+01 -1.1920639988980649e+02 0 0 0
5531 159 4 0.0000000000000000e+00 -1.1485768801208803e+02 -3.0501083517234115e+01 -1.1033813143669117e+02 0 0 0
6524 187 4 0.0000000000000000e+00 -1.0629922544100239e+02 -2.3042045996414330e+01 -1.2098971633193527e+02 0 0 0
6525 187 4 0.0000000000000000e+00 -1.0330674863360456e+02 -3.0415159526704919e+01 -1.1467864276450631e+02 0 0 0
1533 44 2 0.0000000000000000e+00 -1.0398456196898138e+02 -2.0411245995620572e+01 -1.1116289204034355e+02 0 0 0
1534 44 2 0.0000000000000000e+00 -9.4616546325063723e+01 -2.2827236838329330e+01 -1.1261862718557809e+02 0 0 0
2209 64 1 0.0000000000000000e+00 -6.3000784271015760e+01 -1.9670711628794148e+01 -1.1908227870049238e+02 0 0 0
6531 187 4 0.0000000000000000e+00 -5.9586960583789647e+01 -3.0722196220078310e+01 -1.1387782738597319e+02 0 0 0
2210 64 2 0.0000000000000000e+00 -5.7209931991797930e+01 -2.0401509715264865e+01 -1.1093401768709461e+02 0 0 0
6532 187 4 0.0000000000000000e+00 -5.4029257078840708e+01 -2.8127751497237746e+01 -1.2118897808118801e+02 0 0 0
5121 147 3 0.0000000000000000e+00 -4.1331593420343893e+01 -3.0551584598519408e+01 -1.1573023842128573e+02 0 0 0
5122 147 4 0.0000000000000000e+00 -4.3637804248614401e+01 -2.1039264119784548e+01 -1.1756690543024689e+02 0 0 0
1639 47 2 0.0000000000000000e+00 -1.9641633512425472e+01 -2.9117093109810767e+01 -1.1202648584538801e+02 0 0 0
6523 187 4 0.0000000000000000e+00 -1.0533404913359671e+02 -1.3690795232382799e+01 -1.2130216377553451e+02 0 0 0
6522 187 4 0.0000000000000000e+00 -9.5714619841009593e+01 -1.3043742858821981e+01 -1.2134231322460631e+02 0 0 0
6521 187 3 0.0000000000000000e+00 -9.4035137188163446e+01 -1.1070548983569743e+01 -1.1116545396843907e+02 0 0 0
1506 44 2 0.0000000000000000e+00 -8.4100172724915069e+01 -8.7580007285323838e+00 -1.2138488832217530e+02 0 0 0
6236 179 4 0.0000000000000000e+00 -7.6149482788391381e+01 -1.4526417149635989e+01 -1.1167997740494627e+02 0 0 0
6235 179 4 0.0000000000000000e+00 -7.5879041051310764e+01 -1.5840879313593650e+01 -1.2129760731096499e+02 0 0 0
6514 187 3 0.0000000000000000e+00 -6.7563351103300633e+01 -9.0232443441736052e+00 -1.1656156739449531e+02 0 0 0
1510 44 2 0.0000000000000000e+00 -5.1797679992363108e+01 -4.9679888947881077e+00 -1.1132486337501214e+02 0 0 0
6314 181 4 0.0000000000000000e+00 -2.6243157383600359e+01 -9.3981744725378658e+00 -1.2034795045175633e+02 0 0 0
5352 153 3 0.0000000000000000e+00 -2.3048454714391987e+01 -7.5850630660337393e+00 -1.0890513688245127e+02 0 0 0
6891 197 4 0.0000000000000000e+00 -1.0844027623038534e+02 4.2570234311255604e+00 -1.1521317742782351e+02 0 0 0
2068 60 2 0.0000000000000000e+00 -9.8827581290065538e+01 -2.7201951073671143e-01 -1.1008021969933745e+02 0 0 0
2067 60 2 0.0000000000000000e+00 -9.0672509476046599e+01 -9.5559784680430526e-02 -1.1633225598613504e+02 0 0 0
1790 52 2 0.0000000000000000e+00 -9.9987758373950712e+01 9.0899263504223242e+00 -1.1914327521949174e+02 0 0 0
1507 44 2 0.0000000000000000e+00 -7.7072549968691817e+01 -1.2130959701586643e+00 -1.1909537790487094e+02 0 0 0
2066 60 2 0.0000000000000000e+00 -8.4030027624804390e+01 -2.8207353858229074e+00 -1.1026136495803833e+02 0 0 0
1508 44 2 0.0000000000000000e+00 -6.8065922041443926e+01 7.5172102705691191e-01 -1.1683636573246999e+02 0 0 0
1509 44 1 0.0000000000000000e+00 -6.0473306171634292e+01 -1.9326967080272885e+00 -1.1106491514758829e+02 0 0 0
5125 147 4 0.0000000000000000e+00 -5.2779538692300086e+01 2.5303937176489164e+00 -1.1951906729152549e+02 0 0 0
5126 147 4 0.0000000000000000e+00 -5.0193906504647295e+01 5.8506095400608755e+00 -1.1026153106758375e+02 0 0 0
1511 44 2 0.0000000000000000e+00 -4.2516824783137878e+01 -8.0083178104899821e-01 -1.1092496667235059e+02 0 0 0
3640 104 4 0.0000000000000000e+00 -4.0089546648604426e+01 4.8194254166341599e+00 -1.2129030453113813e+02 0 0 0
6313 181 4 0.0000000000000000e+00 -3.0553653800724440e+01 -2.7801389249609326e-01 -1.2180946094411539e+02 0 0 0
5351 153 4 0.0000000000000000e+00 -2.4265725457234513e+01 2.3533298204459316e+00 -1.0944368002885776e+02 0 0 0
488 14 2 0.0000000000000000e+00 -1.2356796680530405e+02 1.2517319593210660e+01 -1.2134526374418374e+02 0 0 0
2907 84 2 0.0000000000000000e+00 -9.8797764376201499e+01 2.0884373474953993e+01 -1.2110486360797803e+02 0 0 0
1791 52 2 0.0000000000000000e+00 -9.8696185199888006e+01 1.0240018012333014e+01 -1.0922818510878722e+02 0 0 0
4765 137 4 0.0000000000000000e+00 -8.5899970106688372e+01 9.7732504406971579e+00 -1.1663149056596130e+02 0 0 0
5906 169 4 0.0000000000000000e+00 -7.7702721238590769e+01 1.7866419695635500e+01 -1.1251469478065484e+02 0 0 0
5907 169 4 0.0000000000000000e+00 -7.1304989256176199e+01 2.0658981858193194e+01 -1.2032314563481197e+02 0 0 0
2626 76 2 0.0000000000000000e+00 -4.9180625454718395e+01 1.5237207534811558e+01 -1.1725816464129859e+02 0 0 0
3639 104 4 0.0000000000000000e+00 -4.1414954237720806e+01 1.0004776580259191e+01 -1.1267261105455050e+02 0 0 0
5350 153 4 0.0000000000000000e+00 -2.9055620625228716e+01 9.5265546567567423e+00 -1.1509010137618966e+02 0 0 0
5349 153 4 0.0000000000000000e+00 -2.3896609397526888e+01 1.8382736293026134e+01 -1.1584556284983235e+02 0 0 0
2518 72 2 0.0000000000000000e+00 -1.0623959637626669e+02 3.4786302258609489e+01 -1.2032366267677293e+02 0 0 0
2517 72 1 0.0000000000000000e+00 -1.0312111125283462e+02 3.5315743523961558e+01 -1.1059339458318584e+02 0 0 0
2908 84 2 0.0000000000000000e+00 -9.0333474766896316e+01 2.4138050250175379e+01 -1.1645977096696109e+02 0 0 0
2909 84 1 0.0000000000000000e+00 -8.2817026325626983e+01 3.0588666278099588e+01 -1.1635593497113931e+02 0 0 0
2910 84 2 0.0000000000000000e+00 -7.3581572926842966e+01 3.0012296241108007e+01 -1.1302051498077076e+02 0 0 0
5885 169 4 0.0000000000000000e+00 -6.2528752112570643e+01 3.4152529327643300e+01 -1.2147324290316233e+02 0 0 0
2911 84 2 0.0000000000000000e+00 -6.4125349550823614e+01 2.6797167993285523e+01 -1.1463938940581684e+02 0 0 0
5884 169 3 0.0000000000000000e+00 -5.2987835870323707e+01 3.2026890786789174e+01 -1.1719469148798515e+02 0 0 0
5883 169 4 0.0000000000000000e+00 -4.3484943268597554e+01 3.2057294113079202e+01 -1.1469027360432953e+02 0 0 0
5882 169 4 0.0000000000000000e+00 -3.3430640973233992e+01 3.0792691266903422e+01 -1.1692245892370951e+02 0 0 0
5881 169 4 0.0000000000000000e+00 -2.5442335314983641e+01 3.4041238700886616e+01 -1.2145468580892806e+02 0 0 0
6275 180 4 0.0000000000000000e+00 -1.1210009424213649e+02 4.3826456777851867e+01 -1.1017935704141506e+02 0 0 0
2920 84 2 0.0000000000000000e+00 -9.0067099914791115e+01 3.9615144738058270e+01 -1.0922274676063910e+02 0 0 0
6176 177 4 0.0000000000000000e+00 -9.7435348680167564e+01 5.0488298132155869e+01 -1.0932037447480307e+02 0 0 0
2921 84 2 0.0000000000000000e+00 -8.5820602328527428e+01 4.3457831779747238e+01 -1.1776253872592733e+02 0 0 0
3186 92 2 0.0000000000000000e+00 -7.5497285522154399e+01 4.4133491712665972e+01 -1.1757449310394989e+02 0 0 0
3187 92 2 0.0000000000000000e+00 -6.6476514279007674e+01 4.3134585360244508e+01 -1.1264779763240341e+02 0 0 0
6183 177 4 0.0000000000000000e+00 -5.6345981495155925e+01 4.5781962386287944e+01 -1.1472778523384301e+02 0 0 0
3189 92 1 0.0000000000000000e+00 -4.9436761076520931e+01 3.9456934397191034e+01 -1.0994088702194830e+02 0 0 0
3190 92 2 0.0000000000000000e+00 -4.6654974818364053e+01 4.2365660312317779e+01 -1.1827212023624344e+02 0 0 0
3383 97 2 0.0000000000000000e+00 -3.4216394150560333e+01 4.8499186469962751e+01 -1.1371657145619949e+02 0 0 0
3384 97 2 0.0000000000000000e+00 -3.5441700005310658e+01 3.8414428483398197e+01 -1.1021622605951320e+02 0 0 0
5345 153 3 0.0000000000000000e+00 -2.0089336222555861e+01 4.8115406350828820e+01 -1.1980209817883332e+02 0 0 0
6242 179 4 0.0000000000000000e+00 -5.3769447923601028e+01 -5.0273061851663428e+01 -9.5706950565433729e+01 0 0 0
5118 147 4 0.0000000000000000e+00 -2.8197069145940969e+01 -4.9062104593344600e+01 -9.9067656242066064e+01 0 0 0
6526 187 4 0.0000000000000000e+00 -1.0022231803810347e+02 -3.5967590606350512e+01 -1.0661381889005762e+02 0 0 0
6527 187 4 0.0000000000000000e+00 -9.0859762965619240e+01 -3.8945892601315961e+01 -1.0601365711412008e+02 0 0 0
6528 187 3 0.0000000000000000e+00 -8.2262899632964661e+01 -4.1296604200094670e+01 -1.0104215307496609e+02 0 0 0
6529 187 4 0.0000000000000000e+00 -7.4673886300047471e+01 -3.8639514844518907e+01 -1.0571459951520337e+02 0 0 0
6240 179 4 0.0000000000000000e+00 -6.1188432833424763e+01 -3.2372509206756789e+01 -9.8882063302972952e+01 0 0 0
6241 179 3 0.0000000000000000e+00 -5.8569463283075365e+01 -4.1818596338628168e+01 -9.9971549396503164e+01 0 0 0
5120 147 4 0.0000000000000000e+00 -3.8155214595584710e+01 -3.6092110651613396e+01 -1.0760772260107275e+02 0 0 0
5119 147 4 0.0000000000000000e+00 -3.4157555735266314e+01 -4.4361849526840672e+01 -1.0632444064117470e+02 0 0 0
5532 159 4 0.0000000000000000e+00 -1.1314435309429096e+02 -2.9953523145026239e+01 -1.0114997932289079e+02 0 0 0
1531 44 2 0.0000000000000000e+00 -1.1400121102208205e+02 -1.9896770912363184e+01 -9.6490845674781596e+01 0 0 0
1536 44 2 0.0000000000000000e+00 -8.1150833161923842e+01 -2.9217534424085290e+01 -1.0323413723837061e+02 0 0 0
1535 44 2 0.0000000000000000e+00 -8.5613795749617353e+01 -2.2118281243637206e+01 -1.0844231367884524e+02 0 0 0
6237 179 4 0.0000000000000000e+00 -7.5807317724045348e+01 -2.0293940415896625e+01 -1.0303861329549815e+02 0 0 0
6239 179 4 0.0000000000000000e+00 -6.7420864488587043e+01 -2.4807280807889121e+01 -9.6232687890758228e+01 0 0 0
2211 64 2 0.0000000000000000e+00 -5.4025350965662454e+01 -2.3903394872940080e+01 -1.0217780127163678e+02 0 0 0
2212 64 2 0.0000000000000000e+00 -4.7353701330256833e+01 -2.7715206909506762e+01 -9.5312747178436226e+01 0 0 0
5354 153 4 0.0000000000000000e+00 -3.7381366355577256e+01 -1.9720090447032742e+01 -1.0627410562428129e+02 0 0 0
1891 55 2 0.0000000000000000e+00 -4.2452535307883835e+01 -1.8575666135937428e+01 -9.6356794821712754e+01 0 0 0
2214 64 2 0.0000000000000000e+00 -3.2144719276963251e+01 -2.0064738957292345e+01 -9.5979122839225582e+01 0 0 0
1532 44 2 0.0000000000000000e+00 -1.1096293094467056e+02 -1.6093367405776476e+01 -1.0542408026483749e+02 0 0 0
2069 60 1 0.0000000000000000e+00 -1.0367457628483926e+02 -8.2048244918983109e+00 -1.0605821843873504e+02 0 0 0
2070 60 2 0.0000000000000000e+00 -1.0006792927501044e+02 -1.0436636734668605e+01 -9.7294384002024344e+01 0 0 0
6520 187 4 0.0000000000000000e+00 -9.2138962595322155e+01 -6.2900645826791850e+00 -1.0308171535806805e+02 0 0 0
6516 187 4 0.0000000000000000e+00 -7.5966061523370897e+01 -8.4253214312363731e+00 -1.0046268036885446e+02 0 0 0
5355 153 4 0.0000000000000000e+00 -4.7093256160352084e+01 -1.7862946295158260e+01 -1.0607343172678046e+02 0 0 0
1892 55 2 0.0000000000000000e+00 -4.8809919017750893e+01 -1.0477461023010061e+01 -9.6000368314678326e+01 0 0 0
5353 153 4 0.0000000000000000e+00 -2.8309526877189477e+01 -1.5440155902696281e+01 -1.0629340899334738e+02 0 0 0
2215 64 2 0.0000000000000000e+00 -2.5750821478614728e+01 -1.2404834078258077e+01 -9.6358941240770449e+01 0 0 0
6888 197 4 0.0000000000000000e+00 -1.3071794581077262e+02 6.6681117764927036e+00 -9.9247057832231732e+01 0 0 0
6889 197 4 0.0000000000000000e+00 -1.2269573799636692e+02 7.9510460684721336e+00 -1.0489774766789677e+02 0 0 0
6890 197 4 0.0000000000000000e+00 -1.1281324975516229e+02 7.9488108450915167e+00 -1.0733828987147965e+02 0 0 0
6508 186 4 0.0000000000000000e+00 -1.0895298947571204e+02 -1.2623247722125799e+00 -9.9916009355107548e+01 0 0 0
6509 186 4 0.0000000000000000e+00 -1.1362752243773865e+02 6.7793205987577752e+00 -9.7146559624465539e+01 0 0 0
1792 52 2 0.0000000000000000e+00 -1.0470565963470422e+02 9.2398032254956153e+00 -1.0122625661350283e+02 0 0 0
6519 187 4 0.0000000000000000e+00 -9.7684437369414439e+01 -3.8074634210993608e-02 -9.6912245865360305e+01 0 0 0
6515 187 4 0.0000000000000000e+00 -7.0015427115608631e+01 -4.3171433359620348e+00 -1.0808725609969555e+02 0 0 0
1893 55 2 0.0000000000000000e+00 -4.5721122685544373e+01 -9.5483802587881572e-01 -9.5231596513294079e+01 0 0 0
1512 44 2 0.0000000000000000e+00 -3.3664342570405800e+01 4.3912437126801152e-01 -1.0577509936909460e+02 0 0 0
2216 64 1 0.0000000000000000e+00 -2.0748351955754352e+01 -4.1838075390924443e+00 -9.8088806055176519e+01 0 0 0
1513 44 2 0.0000000000000000e+00 -3.1706893028821874e+01 -2.6370269403213875e+00 -9.7017505356734347e+01 0 0 0