LAMMPS data file via write_data, version 5 Jun 2019, timestep = 420000000

7000 atoms
4 atom types
7281 bonds
3 bond types
6600 angles
2 angle types

-5.0000000000000000e+02 5.0000000000000000e+02 xlo xhi
-5.0000000000000000e+02 5.0000000000000000e+02 ylo yhi
-5.0000000000000000e+02 5.0000000000000000e+02 zlo zhi

Masses

1 1000
2 1000
3 1000
4 1000

Pair Coeffs # lj/cut

1 0.296 10
2 0.296 10
3 0.296 10
4 0.296 10

Angle Coeffs # cosine

1 2
2 2

Atoms # full

2491 72 2 0.0000000000000000e+00 -7.0578734938740908e+01 5.1370158192125935e+01 -1.6050537939629996e+02 0 0 0
5914 169 4 0.0000000000000000e+00 -5.4248100862220284e+01 4.9068977784742799e+01 -1.6080519331060094e+02 0 0 0
2490 72 2 0.0000000000000000e+00 -6.2769303236374505e+01 4.4920226226202665e+01 -1.5838170470058716e+02 0 0 0
5915 169 4 0.0000000000000000e+00 -4.8038417232865015e+01 4.5565018910062946e+01 -1.6724044104724490e+02 0 0 0
3014 87 1 0.0000000000000000e+00 -5.0310388902694548e+01 9.1520084264801707e+00 -1.4594725174903090e+02 0 0 0
2486 72 2 0.0000000000000000e+00 -7.3418809847202326e+01 1.7831762087906963e+01 -1.4562541174899624e+02 0 0 0
2487 72 2 0.0000000000000000e+00 -6.4669731578635094e+01 2.3086293548152266e+01 -1.4535507627414503e+02 0 0 0
3015 87 2 0.0000000000000000e+00 -4.7640524987917452e+01 1.6692679247190497e+01 -1.5224367651456205e+02 0 0 0
3016 87 2 0.0000000000000000e+00 -4.6935640181714028e+01 2.5538055520378599e+01 -1.4757086222422359e+02 0 0 0
2489 72 1 0.0000000000000000e+00 -5.7810578082074862e+01 3.9134958873288035e+01 -1.5146112362870466e+02 0 0 0
2488 72 2 0.0000000000000000e+00 -6.0636603294136130e+01 2.9199348280725427e+01 -1.5189059703669389e+02 0 0 0
3017 87 2 0.0000000000000000e+00 -4.7078703041770375e+01 3.5122802703843533e+01 -1.4473158201945560e+02 0 0 0
3189 92 1 0.0000000000000000e+00 -1.0748773186336257e+02 5.1970732362032621e+01 -1.4568135498967581e+02 0 0 0
3190 92 2 0.0000000000000000e+00 -1.0328376007776856e+02 4.3002310304097882e+01 -1.4514513488799491e+02 0 0 0
5912 169 3 0.0000000000000000e+00 -5.6914317631846764e+01 4.7750188835286700e+01 -1.4417661350638298e+02 0 0 0
2066 60 2 0.0000000000000000e+00 -7.4498485061702411e+01 -4.3406942044254755e+01 -1.3252560655472939e+02 0 0 0
5141 147 4 0.0000000000000000e+00 -5.5578824298491845e+01 -1.7291691637587693e+01 -1.3121031742471754e+02 0 0 0
5099 146 4 0.0000000000000000e+00 -5.4320684795584334e+01 -4.8452494142407483e+00 -1.3304228747310091e+02 0 0 0
5100 146 3 0.0000000000000000e+00 -5.2890871766158703e+01 4.7390494423878264e+00 -1.3585566048170608e+02 0 0 0
3013 87 2 0.0000000000000000e+00 -4.4480886665168590e+01 7.8268165517236801e+00 -1.3861509743078861e+02 0 0 0
3012 87 2 0.0000000000000000e+00 -3.7881914060345814e+01 6.5658879510275101e+00 -1.3146388098863503e+02 0 0 0
6545 187 4 0.0000000000000000e+00 -1.1042218539977051e+02 2.5411857325078593e+01 -1.3644150364808939e+02 0 0 0
489 14 2 0.0000000000000000e+00 -7.1170609838220983e+01 1.3528937814336736e+01 -1.3174542186313451e+02 0 0 0
488 14 2 0.0000000000000000e+00 -6.9007641143919770e+01 2.3261196869222829e+01 -1.3127499769369894e+02 0 0 0
3637 104 3 0.0000000000000000e+00 -5.5124952510928495e+01 2.5136789591518671e+01 -1.4061381790981665e+02 0 0 0
3638 104 4 0.0000000000000000e+00 -5.9806467598267581e+01 2.1167071798778654e+01 -1.3354923375872806e+02 0 0 0
5101 146 4 0.0000000000000000e+00 -5.1531479505854868e+01 1.4801755979356113e+01 -1.3661434451646468e+02 0 0 0
5438 156 4 0.0000000000000000e+00 -3.6584645092836617e+01 2.3019286392660920e+01 -1.3332210384238618e+02 0 0 0
3191 92 2 0.0000000000000000e+00 -9.7560334015166816e+01 3.6030333794692943e+01 -1.4089800487174841e+02 0 0 0
3192 92 2 0.0000000000000000e+00 -9.2949736184199267e+01 3.7596588680034365e+01 -1.3217876908841538e+02 0 0 0
487 14 1 0.0000000000000000e+00 -6.3456151320250335e+01 3.0311556462029561e+01 -1.3558104967792775e+02 0 0 0
486 14 2 0.0000000000000000e+00 -5.9268291020691635e+01 3.9221981619048329e+01 -1.3821204623597288e+02 0 0 0
3018 87 2 0.0000000000000000e+00 -4.5857380359118551e+01 3.9267750104978042e+01 -1.3616759445241777e+02 0 0 0
3636 104 4 0.0000000000000000e+00 -5.2132111682716229e+01 3.2141141258898848e+01 -1.3435625155842115e+02 0 0 0
5437 156 4 0.0000000000000000e+00 -3.9006067970360526e+01 2.9646568840047895e+01 -1.3991234783948181e+02 0 0 0
5436 156 3 0.0000000000000000e+00 -3.6035000940125478e+01 3.9615098412640378e+01 -1.3994933674215397e+02 0 0 0
3020 87 2 0.0000000000000000e+00 -2.9012824621254662e+01 3.6364923216187918e+01 -1.3167024484125062e+02 0 0 0
6188 177 4 0.0000000000000000e+00 -9.7520602411658217e+01 4.9097823983126865e+01 -1.3914354391152895e+02 0 0 0
6189 177 4 0.0000000000000000e+00 -8.8415324372843827e+01 5.2080854541235375e+01 -1.3911687619870546e+02 0 0 0
485 14 2 0.0000000000000000e+00 -6.4180934688905438e+01 4.7313425877278995e+01 -1.3635280638991219e+02 0 0 0
5911 169 4 0.0000000000000000e+00 -5.1592672538969531e+01 4.9386787307281459e+01 -1.3596970956101705e+02 0 0 0
5435 156 4 0.0000000000000000e+00 -3.9101710186791131e+01 4.8033728735712025e+01 -1.3622396247530565e+02 0 0 0
5531 159 4 0.0000000000000000e+00 -9.1751968418139995e+01 -4.7300880177615191e+01 -1.2821487144005093e+02 0 0 0
6525 187 4 0.0000000000000000e+00 -8.4506669986569634e+01 -5.2844886158440744e+01 -1.2300199798766248e+02 0 0 0
6526 187 4 0.0000000000000000e+00 -9.1546361848080593e+01 -5.0352344685858199e+01 -1.1642894017249334e+02 0 0 0
6524 187 4 0.0000000000000000e+00 -7.5428802682435716e+01 -4.7723921568368745e+01 -1.2005366293488831e+02 0 0 0
6523 187 4 0.0000000000000000e+00 -6.7476237242406043e+01 -4.2502820145357468e+01 -1.2307495880243357e+02 0 0 0
2832 81 1 0.0000000000000000e+00 -2.8609253442571937e+01 -4.3328539960406111e+01 -1.2827901889036815e+02 0 0 0
5532 159 4 0.0000000000000000e+00 -9.7118931425402224e+01 -4.0615009756593111e+01 -1.2352986466659161e+02 0 0 0
2068 60 2 0.0000000000000000e+00 -8.6930927383506457e+01 -3.4689736482130158e+01 -1.2092349920562442e+02 0 0 0
2067 60 2 0.0000000000000000e+00 -7.9274678275894757e+01 -3.7739825546376402e+01 -1.2669680414788127e+02 0 0 0
5143 147 4 0.0000000000000000e+00 -6.2497477041388379e+01 -2.8937037198217112e+01 -1.1918716212931953e+02 0 0 0
2830 81 2 0.0000000000000000e+00 -3.8401770364422298e+01 -2.9763555960251690e+01 -1.1857996335173922e+02 0 0 0
2831 81 2 0.0000000000000000e+00 -3.2013275423618040e+01 -3.4834869762843624e+01 -1.2448024881245539e+02 0 0 0
3385 97 1 0.0000000000000000e+00 -7.1813581839013267e+01 -1.4764730200483108e+01 -1.2297315075817019e+02 0 0 0
3384 97 2 0.0000000000000000e+00 -8.0817074946588605e+01 -1.5295447616592854e+01 -1.1846670855242397e+02 0 0 0
5142 147 3 0.0000000000000000e+00 -6.1715185668322967e+01 -2.0102426343578756e+01 -1.2335261307621514e+02 0 0 0
6302 181 4 0.0000000000000000e+00 -3.0076928544052191e+01 -2.0996120385190910e+01 -1.1655651758715163e+02 0 0 0
6301 181 4 0.0000000000000000e+00 -2.8335267110998842e+01 -2.1713719329287230e+01 -1.2581303855104204e+02 0 0 0
5138 147 4 0.0000000000000000e+00 -6.1778812073779484e+01 -2.2996884804174096e+00 -1.2158555499786021e+02 0 0 0
5140 147 4 0.0000000000000000e+00 -4.8676652789474161e+01 -1.2682309187692921e+01 -1.2604431470939576e+02 0 0 0
5139 147 4 0.0000000000000000e+00 -5.2075541272300192e+01 -4.0025645200975193e+00 -1.2280457980549514e+02 0 0 0
5098 146 4 0.0000000000000000e+00 -4.5100606641483573e+01 -1.7706693545455419e+00 -1.2996753743727251e+02 0 0 0
5096 146 4 0.0000000000000000e+00 -3.0563219261699590e+01 -5.8827304407888725e+00 -1.2180446263964271e+02 0 0 0
1539 44 2 0.0000000000000000e+00 -1.1759548038445404e+02 5.0346080429313513e+00 -1.1792183794842030e+02 0 0 0
490 14 2 0.0000000000000000e+00 -6.8285995583850777e+01 5.4933886137164993e+00 -1.2758518368801454e+02 0 0 0
5097 146 4 0.0000000000000000e+00 -3.7421455498669275e+01 2.5917980238648708e-01 -1.2386556763012081e+02 0 0 0
2928 84 2 0.0000000000000000e+00 -1.2871503357389105e+02 2.2088376275750957e+01 -1.1963561113007161e+02 0 0 0
1540 44 2 0.0000000000000000e+00 -1.1757035251659723e+02 1.3653928436471634e+01 -1.2370730379696354e+02 0 0 0
6544 187 4 0.0000000000000000e+00 -1.0969686779323759e+02 2.1678569522378709e+01 -1.2759609054102896e+02 0 0 0
6543 187 4 0.0000000000000000e+00 -1.1047258510656522e+02 2.1255232504849683e+01 -1.1806925372689992e+02 0 0 0
6513 187 4 0.0000000000000000e+00 -8.3671655064735063e+01 2.2364761991250450e+01 -1.1870433153468024e+02 0 0 0
6514 187 3 0.0000000000000000e+00 -7.3761312454525992e+01 1.9759445965195972e+01 -1.1913157891638897e+02 0 0 0
3639 104 4 0.0000000000000000e+00 -6.3170383754156553e+01 2.0565212882654166e+01 -1.2404152013088984e+02 0 0 0
5102 146 4 0.0000000000000000e+00 -4.7851852023677736e+01 2.1651526619494394e+01 -1.2975945430949002e+02 0 0 0
3011 87 2 0.0000000000000000e+00 -3.5392766567704776e+01 1.3888840003273469e+01 -1.2553138536738251e+02 0 0 0
628 18 2 0.0000000000000000e+00 -3.5762391038985363e+01 2.1482921103519907e+01 -1.1723491694746542e+02 0 0 0
2927 84 2 0.0000000000000000e+00 -1.2573625620757873e+02 3.1520893387574272e+01 -1.1847191744074483e+02 0 0 0
2926 84 2 0.0000000000000000e+00 -1.1854193665192572e+02 3.8014032983582823e+01 -1.1670521246333179e+02 0 0 0
6511 187 4 0.0000000000000000e+00 -1.0047841172364407e+02 2.8491847852405296e+01 -1.2120451166663587e+02 0 0 0
5907 169 4 0.0000000000000000e+00 -7.4678834697560234e+01 3.1346603432100615e+01 -1.2319258332320327e+02 0 0 0
5908 169 4 0.0000000000000000e+00 -6.7631895705056181e+01 3.8132472406105251e+01 -1.2042622405995054e+02 0 0 0
3640 104 4 0.0000000000000000e+00 -6.2749952320556609e+01 2.8435866334427860e+01 -1.1799995225727916e+02 0 0 0
5103 146 4 0.0000000000000000e+00 -4.2174873127845657e+01 2.7990857377799600e+01 -1.2440516030378809e+02 0 0 0
3019 87 2 0.0000000000000000e+00 -3.8969949516334502e+01 3.6343618738007066e+01 -1.3011368450286608e+02 0 0 0
5104 146 4 0.0000000000000000e+00 -3.4671489363601978e+01 3.2954609212268409e+01 -1.1947634359680085e+02 0 0 0
6187 177 4 0.0000000000000000e+00 -1.0212003721978851e+02 4.6523414602333617e+01 -1.2998300339391045e+02 0 0 0
6186 177 4 0.0000000000000000e+00 -9.7993746020710518e+01 4.9961674193314394e+01 -1.2193221195498023e+02 0 0 0
3193 92 2 0.0000000000000000e+00 -8.8230340267887712e+01 4.1293106777446987e+01 -1.2482068174031126e+02 0 0 0
3194 92 2 0.0000000000000000e+00 -8.4750274251364203e+01 4.7635092069633671e+01 -1.1849575039974060e+02 0 0 0
482 14 2 0.0000000000000000e+00 -8.5421482417663412e+01 5.3023269735174161e+01 -1.2874455670588335e+02 0 0 0
3195 92 2 0.0000000000000000e+00 -7.6436624821496267e+01 5.3094916853970382e+01 -1.1717309337749018e+02 0 0 0
3373 97 2 0.0000000000000000e+00 -5.5294277409415180e+01 5.2222159087584913e+01 -1.1658477841999948e+02 0 0 0
5909 169 4 0.0000000000000000e+00 -6.1683817129436122e+01 4.5394914156691009e+01 -1.1868191885089988e+02 0 0 0
5910 169 4 0.0000000000000000e+00 -5.6682333435027729e+01 4.9846932550658089e+01 -1.2642797209271590e+02 0 0 0
3635 104 4 0.0000000000000000e+00 -5.2621594575142439e+01 4.0925890294037004e+01 -1.2819386105213582e+02 0 0 0
3634 104 4 0.0000000000000000e+00 -4.5699196244428215e+01 4.7614189736340066e+01 -1.2362961999568130e+02 0 0 0
1506 44 2 0.0000000000000000e+00 -7.3006598499797363e+01 -7.3531287991968497e+01 -1.1028844406435543e+02 0 0 0
1507 44 2 0.0000000000000000e+00 -6.4515700149456976e+01 -7.2092006411323098e+01 -1.0507904075692697e+02 0 0 0
1530 44 1 0.0000000000000000e+00 -1.0892096628348371e+02 -4.9239685414647006e+01 -1.0392069651163226e+02 0 0 0
5534 159 3 0.0000000000000000e+00 -1.0134339346260285e+02 -4.2095806699721059e+01 -1.0546106405388227e+02 0 0 0
6527 187 4 0.0000000000000000e+00 -9.1491773486719154e+01 -4.4257767937715698e+01 -1.0914079229564079e+02 0 0 0
1531 44 2 0.0000000000000000e+00 -1.1059587721234790e+02 -3.9763867097285598e+01 -1.0309833207129958e+02 0 0 0
5533 159 4 0.0000000000000000e+00 -1.0076827515760557e+02 -3.8417383263669436e+01 -1.1468203074968710e+02 0 0 0
2069 60 1 0.0000000000000000e+00 -8.6201124760297660e+01 -3.1329417145701225e+01 -1.1157054234646682e+02 0 0 0
6528 187 3 0.0000000000000000e+00 -9.2632819464545420e+01 -3.5894267644660488e+01 -1.0359733090737528e+02 0 0 0
2070 60 2 0.0000000000000000e+00 -8.0897547634857816e+01 -3.7723812576508891e+01 -1.0625166662088331e+02 0 0 0
5144 147 4 0.0000000000000000e+00 -7.0070931953292700e+01 -3.3139425038871970e+01 -1.1403972585089576e+02 0 0 0
6522 187 4 0.0000000000000000e+00 -6.1522427879451932e+01 -4.0044048762747053e+01 -1.1530923491957792e+02 0 0 0
6521 187 3 0.0000000000000000e+00 -5.5336880731990831e+01 -3.6718517194307083e+01 -1.0929313426809004e+02 0 0 0
2823 81 2 0.0000000000000000e+00 -6.4868642498421636e+01 -3.4539446059862257e+01 -1.0460424338899178e+02 0 0 0
6520 187 4 0.0000000000000000e+00 -4.9193724086495557e+01 -2.9126269572420657e+01 -1.0704059501435309e+02 0 0 0
6303 181 4 0.0000000000000000e+00 -3.1861697263049017e+01 -2.7886058409304706e+01 -1.0938856139252920e+02 0 0 0
1536 44 2 0.0000000000000000e+00 -1.3086800764254920e+02 -1.7235744125956160e+01 -1.0557773464909464e+02 0 0 0
5145 147 4 0.0000000000000000e+00 -7.3671119674466894e+01 -2.6180240957417436e+01 -1.0807358160150824e+02 0 0 0
3386 97 2 0.0000000000000000e+00 -6.7367559192531843e+01 -1.7129769013314082e+01 -1.1445150970268990e+02 0 0 0
3387 97 2 0.0000000000000000e+00 -6.3649238980412271e+01 -1.4997676530532623e+01 -1.0520863830714244e+02 0 0 0
6519 187 4 0.0000000000000000e+00 -5.3415351769759639e+01 -2.0214550527015316e+01 -1.0432170234479146e+02 0 0 0
2829 81 2 0.0000000000000000e+00 -4.0950132656765639e+01 -2.3092888949291254e+01 -1.1219784069431365e+02 0 0 0
1537 44 1 0.0000000000000000e+00 -1.2623238358010778e+02 -8.1510182273291836e+00 -1.0775499692877240e+02 0 0 0
1538 44 2 0.0000000000000000e+00 -1.2235896833998360e+02 -3.2261863877717372e+00 -1.1563243563980068e+02 0 0 0
3383 97 2 0.0000000000000000e+00 -8.8110709103268547e+01 -1.3157603101830185e+01 -1.1262563057333570e+02 0 0 0
3382 97 2 0.0000000000000000e+00 -8.9829604689529901e+01 -4.0790615309714902e+00 -1.0857488860241301e+02 0 0 0
5136 147 4 0.0000000000000000e+00 -7.0744244205733878e+01 -8.4399321401453822e+00 -1.0695853435834475e+02 0 0 0
5137 147 4 0.0000000000000000e+00 -6.9917310041444395e+01 -5.6056013981082264e+00 -1.1616650346738297e+02 0 0 0
6517 187 4 0.0000000000000000e+00 -5.6996262550122978e+01 -2.1225172449198415e+00 -1.1098850628496207e+02 0 0 0
6518 187 4 0.0000000000000000e+00 -5.3057492856895351e+01 -1.0792411933704521e+01 -1.0781512008055708e+02 0 0 0
5347 153 4 0.0000000000000000e+00 -2.8706335986439630e+01 -9.3010134225889800e+00 -1.0588120209926940e+02 0 0 0
6508 186 4 0.0000000000000000e+00 -1.2311918092021439e+02 1.9522671523909145e+00 -1.0749950852935987e+02 0 0 0
6509 186 4 0.0000000000000000e+00 -1.1334665075611954e+02 3.1316617036696117e+00 -1.0822322499912082e+02 0 0 0
2930 84 1 0.0000000000000000e+00 -1.1902562405518628e+02 1.1209082274844947e+01 -1.0995093332263784e+02 0 0 0
6510 186 4 0.0000000000000000e+00 -1.0510471225184421e+02 8.3177119676741267e+00 -1.0910007373938814e+02 0 0 0
3381 97 2 0.0000000000000000e+00 -8.1241375180758169e+01 -6.0582706998999292e-01 -1.0474631877137709e+02 0 0 0
3380 97 2 0.0000000000000000e+00 -7.2243515382982650e+01 3.3313010509508048e+00 -1.0327355796210509e+02 0 0 0
6516 187 4 0.0000000000000000e+00 -6.1986859529658389e+01 6.4683949240914806e+00 -1.1367101080684922e+02 0 0 0
3379 97 2 0.0000000000000000e+00 -6.2980840162394486e+01 6.5107676275851292e+00 -1.0465282227284406e+02 0 0 0
5110 146 4 0.0000000000000000e+00 -4.5117381061296584e+01 -6.5876874798225082e-01 -1.0694199322051783e+02 0 0 0
5109 146 4 0.0000000000000000e+00 -4.2521087820107773e+01 9.1575061881400011e+00 -1.0524520345984328e+02 0 0 0
5344 153 4 0.0000000000000000e+00 -4.0362217677360221e+01 1.1950883092001055e+01 -1.1476431412896849e+02 0 0 0
5345 153 3 0.0000000000000000e+00 -3.2071649903268700e+01 6.6907475918783499e+00 -1.1609050324092324e+02 0 0 0
5346 153 4 0.0000000000000000e+00 -2.9145632690989810e+01 -2.1180622803159432e-01 -1.1007554701718118e+02 0 0 0
2929 84 2 0.0000000000000000e+00 -1.2727910032895694e+02 1.3042733796232540e+01 -1.1519941578332100e+02 0 0 0
1738 50 2 0.0000000000000000e+00 -1.2461942313362630e+02 2.4818801565533885e+01 -1.0715952367478977e+02 0 0 0
6542 187 3 0.0000000000000000e+00 -1.1526324026133767e+02 2.0953454990438193e+01 -1.0941430940897567e+02 0 0 0
6512 187 4 0.0000000000000000e+00 -9.3195489442635107e+01 2.3812106078086398e+01 -1.1533441048411325e+02 0 0 0
927 27 2 0.0000000000000000e+00 -7.4527904833984721e+01 1.6801587410097618e+01 -1.0665298808033128e+02 0 0 0
6515 187 4 0.0000000000000000e+00 -6.5911257281963017e+01 1.5707344402012918e+01 -1.1412093981522521e+02 0 0 0
5343 153 4 0.0000000000000000e+00 -4.9221195496505160e+01 1.5108851429320566e+01 -1.1133097346367535e+02 0 0 0
629 18 2 0.0000000000000000e+00 -4.1928764067994472e+01 2.4871893170764029e+01 -1.1067390632899328e+02 0 0 0
5342 153 4 0.0000000000000000e+00 -4.9566959276436783e+01 2.0358837406947035e+01 -1.0286312466425065e+02 0 0 0
5108 146 4 0.0000000000000000e+00 -3.5765333508925224e+01 1.6697611422671013e+01 -1.0595926586617031e+02 0 0 0
1737 50 2 0.0000000000000000e+00 -1.3011224866444030e+02 3.2061850366541663e+01 -1.0406259191464051e+02 0 0 0
1739 50 2 0.0000000000000000e+00 -1.2004844480216028e+02 3.2590752828637847e+01 -1.0316965612659205e+02 0 0 0
5904 169 4 0.0000000000000000e+00 -9.5256624764892706e+01 3.7186955537527417e+01 -1.0553304960168016e+02 0 0 0
5905 169 3 0.0000000000000000e+00 -8.7412865629387454e+01 3.7577292434418212e+01 -1.1122529961738826e+02 0 0 0
5906 169 4 0.0000000000000000e+00 -7.9235716832504806e+01 3.3830356872453805e+01 -1.1602994125127890e+02 0 0 0
928 27 1 0.0000000000000000e+00 -7.3041272198194022e+01 2.6142317047950563e+01 -1.1038694529895265e+02 0 0 0
929 27 2 0.0000000000000000e+00 -7.4309460401908098e+01 3.3673944958588336e+01 -1.0388038832235102e+02 0 0 0
3375 97 2 0.0000000000000000e+00 -5.6648286292815833e+01 3.5840382118289249e+01 -1.0865920715378428e+02 0 0 0
630 18 2 0.0000000000000000e+00 -4.7801938417873522e+01 3.2990360785813266e+01 -1.1418914481732470e+02 0 0 0
1771 51 2 0.0000000000000000e+00 -4.3775542484626399e+01 3.6897606054891824e+01 -1.0555461416766975e+02 0 0 0
5105 146 4 0.0000000000000000e+00 -2.8500590374912363e+01 2.8980077754412289e+01 -1.1304739133528342e+02 0 0 0
1772 51 2 0.0000000000000000e+00 -3.4324639863603984e+01 3.4930687928158164e+01 -1.0577572006488028e+02 0 0 0
1736 50 2 0.0000000000000000e+00 -1.3652189469040664e+02 3.9943343578372364e+01 -1.0497944608958413e+02 0 0 0
1735 50 2 0.0000000000000000e+00 -1.3119747178998912e+02 4.7333418803853441e+01 -1.0911402816916858e+02 0 0 0
2925 84 2 0.0000000000000000e+00 -1.1831506655809564e+02 4.5868974968944535e+01 -1.1077919577179263e+02 0 0 0
4766 137 4 0.0000000000000000e+00 -1.1279892017263738e+02 5.2541564198231278e+01 -1.0429652653037969e+02 0 0 0
6185 177 3 0.0000000000000000e+00 -1.0164683188439901e+02 4.9142982187144590e+01 -1.1205628408809689e+02 0 0 0
5903 169 4 0.0000000000000000e+00 -1.0260451431245390e+02 4.2977082665348171e+01 -1.0292795637259459e+02 0 0 0
6183 177 4 0.0000000000000000e+00 -8.4211972587604990e+01 4.4721012511666473e+01 -1.0419606630281298e+02 0 0 0
6184 177 4 0.0000000000000000e+00 -9.3595640313539590e+01 4.7122271623736346e+01 -1.0683570706147894e+02 0 0 0
6182 177 4 0.0000000000000000e+00 -7.4468108248978680e+01 4.4366394108154680e+01 -1.0286794766984265e+02 0 0 0
3374 97 2 0.0000000000000000e+00 -5.2744753923460486e+01 4.4072875466141987e+01 -1.1074023231528685e+02 0 0 0
1770 51 2 0.0000000000000000e+00 -4.2280847226867422e+01 4.6618131129550463e+01 -1.0569664701795209e+02 0 0 0
1769 51 2 0.0000000000000000e+00 -3.4484032826344190e+01 5.1832018997934235e+01 -1.0980109748861558e+02 0 0 0
6322 181 4 0.0000000000000000e+00 -3.6004649234414615e+01 -9.8287859670176005e+01 -9.3682116399402517e+01 0 0 0
6321 181 4 0.0000000000000000e+00 -3.9002090735442081e+01 -8.8985432757330088e+01 -9.6842263677933715e+01 0 0 0
6320 181 4 0.0000000000000000e+00 -4.3757038579886242e+01 -8.0892851664973435e+01 -9.3629687790150754e+01 0 0 0
6319 181 4 0.0000000000000000e+00 -4.7274218215917649e+01 -7.1379773076456857e+01 -9.4488577274451472e+01 0 0 0
2074 60 2 0.0000000000000000e+00 -7.8395588888031256e+01 -6.1927107111954797e+01 -9.3498464543898407e+01 0 0 0
2073 60 2 0.0000000000000000e+00 -6.9928738291311674e+01 -5.8263394671056503e+01 -9.8562396333328707e+01 0 0 0
1508 44 2 0.0000000000000000e+00 -6.0086568772414864e+01 -6.7370203314170595e+01 -9.7155644818744932e+01 0 0 0
6318 181 3 0.0000000000000000e+00 -4.5630899909550280e+01 -6.2601526903167922e+01 -9.0292209624580792e+01 0 0 0
1529 44 2 0.0000000000000000e+00 -1.1028404881079727e+02 -4.6871999331722044e+01 -9.4255656759734080e+01 0 0 0
5535 159 4 0.0000000000000000e+00 -9.7133225207700974e+01 -4.9230989474213985e+01 -1.0004654999715471e+02 0 0 0
2075 60 2 0.0000000000000000e+00 -8.1686682910238602e+01 -5.3420205419834915e+01 -8.9866266886896327e+01 0 0 0
5536 159 4 0.0000000000000000e+00 -8.7999623541895048e+01 -5.2181309352227906e+01 -9.9644374343125477e+01 0 0 0
5537 159 4 0.0000000000000000e+00 -8.8768394696886006e+01 -4.4370654156188898e+01 -9.4569188089322012e+01 0 0 0
2072 60 2 0.0000000000000000e+00 -7.3920120887546872e+01 -4.9078018454356275e+01 -9.8125441771090379e+01 0 0 0
2821 81 2 0.0000000000000000e+00 -6.3103032586937275e+01 -4.9575946192470262e+01 -9.3849338530145289e+01 0 0 0
2822 81 2 0.0000000000000000e+00 -6.2939900105092882e+01 -4.3728319325546956e+01 -1.0122355812986326e+02 0 0 0
3918 112 4 0.0000000000000000e+00 -3.5923508744080173e+01 -4.2412687951214650e+01 -9.2057991696816600e+01 0 0 0
1533 44 2 0.0000000000000000e+00 -1.2993839172467275e+02 -3.6342400010697062e+01 -9.7424643804219087e+01 0 0 0
1534 44 2 0.0000000000000000e+00 -1.3357950165952801e+02 -3.0317708521108006e+01 -9.0188862720069665e+01 0 0 0
1532 44 2 0.0000000000000000e+00 -1.2020528848974504e+02 -3.7456152263598796e+01 -1.0071785796084784e+02 0 0 0
6235 179 4 0.0000000000000000e+00 -9.7421287706590817e+01 -3.8845201903229430e+01 -9.1479962243999452e+01 0 0 0
6529 187 4 0.0000000000000000e+00 -8.9616316915486223e+01 -2.8459878375249566e+01 -9.8223017234668134e+01 0 0 0
5538 159 4 0.0000000000000000e+00 -8.3471286751684914e+01 -3.5531505112589528e+01 -9.5043203961833299e+01 0 0 0
2071 60 2 0.0000000000000000e+00 -7.4188240993305783e+01 -3.9192520654449723e+01 -9.9180828721605721e+01 0 0 0
5539 159 4 0.0000000000000000e+00 -7.7980303205819169e+01 -2.8474623622848323e+01 -9.9418875863079336e+01 0 0 0
2825 81 1 0.0000000000000000e+00 -6.0055001200887524e+01 -3.1682731906487891e+01 -9.0189963567424158e+01 0 0 0
6304 181 3 0.0000000000000000e+00 -3.1437319571987391e+01 -2.9042698197498282e+01 -9.9581708498429492e+01 0 0 0
1535 44 2 0.0000000000000000e+00 -1.3324064298212622e+02 -2.2922130616083969e+01 -9.7057244489250607e+01 0 0 0
1524 44 2 0.0000000000000000e+00 -1.1143462752547441e+02 -2.5523385746926650e+01 -9.2854443218035939e+01 0 0 0
1523 44 1 0.0000000000000000e+00 -1.0227548630409626e+02 -2.1026824843464329e+01 -9.4894116072812182e+01 0 0 0
1522 44 2 0.0000000000000000e+00 -9.5777562784082534e+01 -1.5425923687414926e+01 -8.9661971205782834e+01 0 0 0
6530 187 4 0.0000000000000000e+00 -8.7541494814746414e+01 -2.1118724205361964e+01 -9.2426612257236286e+01 0 0 0
1642 47 1 0.0000000000000000e+00 -7.4877860259395277e+01 -1.6847510350328289e+01 -9.6491342874847845e+01 0 0 0
5540 159 4 0.0000000000000000e+00 -7.2823628291800503e+01 -2.5683558411795030e+01 -9.1248595040882350e+01 0 0 0
2824 81 2 0.0000000000000000e+00 -6.0179110696019265e+01 -2.7419715809652228e+01 -9.9197172785093471e+01 0 0 0
1640 47 2 0.0000000000000000e+00 -5.6533983478824254e+01 -1.8980947127210115e+01 -9.2056228502070041e+01 0 0 0
1641 47 2 0.0000000000000000e+00 -6.5292314754356013e+01 -1.6734869651925528e+01 -9.5274372320689238e+01 0 0 0
2826 81 2 0.0000000000000000e+00 -5.1920272598049166e+01 -2.7630009249753957e+01 -9.1777023974878489e+01 0 0 0
2828 81 2 0.0000000000000000e+00 -4.1149142766606772e+01 -2.2235255094315285e+01 -1.0234977053861235e+02 0 0 0
2827 81 2 0.0000000000000000e+00 -4.2067933626462512e+01 -2.5459872899501995e+01 -9.2605414605837424e+01 0 0 0
1639 47 2 0.0000000000000000e+00 -4.7708435769394342e+01 -1.5676356312538548e+01 -9.1207461794217679e+01 0 0 0
1621 47 1 0.0000000000000000e+00 -3.2126606134039932e+01 -1.7586274831084626e+01 -9.9507696011360935e+01 0 0 0
1620 47 2 0.0000000000000000e+00 -3.4387436684813771e+01 -2.0277201892866469e+01 -9.0283980818384236e+01 0 0 0
6506 186 4 0.0000000000000000e+00 -1.3407851548383084e+02 -6.2325332807176617e+00 -9.3953136188019940e+01 0 0 0
6500 186 3 0.0000000000000000e+00 -1.0347861248015781e+02 -4.3977525019967603e+00 -9.3257056920567052e+01 0 0 0
6499 186 4 0.0000000000000000e+00 -1.0037290810785331e+02 -1.9119575953670749e+00 -1.0214943503288228e+02 0 0 0
1643 47 2 0.0000000000000000e+00 -8.1534047809685816e+01 -1.2787574613485678e+01 -1.0225121959923338e+02 0 0 0
1644 47 2 0.0000000000000000e+00 -8.6368926727386693e+01 -5.6866126039771325e+00 -9.8103543009194851e+01 0 0 0
5135 147 3 0.0000000000000000e+00 -7.4744576845879564e+01 -5.8777089853433697e+00 -9.7755524751845996e+01 0 0 0
5352 153 3 0.0000000000000000e+00 -7.0699778725851289e+01 -9.6754159471716417e+00 -8.9345780396570206e+01 0 0 0
5134 147 4 0.0000000000000000e+00 -6.6899146860908743e+01 -1.6894282309973665e+00 -9.4298410529220618e+01 0 0 0
3388 97 2 0.0000000000000000e+00 -5.9539052073961720e+01 -7.9826458091644623e+00 -9.9015964538517679e+01 0 0 0
5351 153 4 0.0000000000000000e+00 -6.0651865217194675e+01 -9.4589782403996505e+00 -8.9706898532191488e+01 0 0 0
5350 153 4 0.0000000000000000e+00 -5.1395284425636966e+01 -6.2927333818048012e+00 -8.9697854511297322e+01 0 0 0
5349 153 4 0.0000000000000000e+00 -4.5655528572523487e+01 -7.3171613988038056e+00 -9.7170843926682181e+01 0 0 0
5348 153 4 0.0000000000000000e+00 -3.7925646522070991e+01 -9.5858400330799114e+00 -1.0265396712814238e+02 0 0 0
1637 47 2 0.0000000000000000e+00 -2.9532706807970740e+01 -1.0398182583748529e+01 -9.0165625833758497e+01 0 0 0
1638 47 2 0.0000000000000000e+00 -3.9162804351361046e+01 -1.0667408765101138e+01 -8.9531149777980858e+01 0 0 0
6507 186 3 0.0000000000000000e+00 -1.3063825312150038e+02 -3.2583952695345597e-01 -1.0145376629284239e+02 0 0 0
2931 84 2 0.0000000000000000e+00 -1.1404855822430734e+02 1.1930538253737859e+01 -1.0158731761271430e+02 0 0 0
6498 186 4 0.0000000000000000e+00 -1.0909642696624448e+02 1.8233881960437532e+00 -1.0037054324094483e+02 0 0 0
6497 186 4 0.0000000000000000e+00 -1.1037002953376545e+02 5.5757673873128866e+00 -9.0855884088866048e+01 0 0 0
6539 187 4 0.0000000000000000e+00 -1.0024895348556990e+02 1.1643209156854478e+01 -9.8817690595861563e+01 0 0 0
1645 47 2 0.0000000000000000e+00 -9.3034144410931560e+01 2.5867388642306560e-01 -9.4219842957553553e+01 0 0 0
6538 187 4 0.0000000000000000e+00 -9.1472971273688373e+01 8.2272108156591788e+00 -1.0103231802189165e+02 0 0 0
6537 187 4 0.0000000000000000e+00 -8.1786727181983892e+01 1.0913289231266218e+01 -1.0141545122247797e+02 0 0 0
5133 147 4 0.0000000000000000e+00 -5.9770757567650016e+01 4.8959283632548525e+00 -9.3975481635323973e+01 0 0 0
3389 97 2 0.0000000000000000e+00 -5.3792522473497748e+01 -8.6795625907077456e-02 -1.0155874059713635e+02 0 0 0
3390 97 2 0.0000000000000000e+00 -4.9799173499080879e+01 8.3352818054212268e+00 -9.8110171224959700e+01 0 0 0
3391 97 2 0.0000000000000000e+00 -4.5296350828323220e+01 5.2367054430968825e+00 -9.0352238242043100e+01 0 0 0
2933 84 2 0.0000000000000000e+00 -1.1905721961412328e+02 1.3822783382946398e+01 -9.0971643313778557e+01 0 0 0
2932 84 2 0.0000000000000000e+00 -1.0980441079911340e+02 1.6559845647516102e+01 -9.2931627003375738e+01 0 0 0
6876 197 4 0.0000000000000000e+00 -1.1184624105076294e+02 2.5255128777088711e+01 -8.9225967417727716e+01 0 0 0
6540 187 4 0.0000000000000000e+00 -1.0621800969721630e+02 1.9333150578550047e+01 -1.0172445790447685e+02 0 0 0
2907 84 2 0.0000000000000000e+00 -9.2247841273571424e+01 1.7841685355451283e+01 -9.2662463698261121e+01 0 0 0
2908 84 2 0.0000000000000000e+00 -8.8984953175592992e+01 2.6136750413240165e+01 -9.7016046478234301e+01 0 0 0
6536 187 4 0.0000000000000000e+00 -7.3079473370158226e+01 1.2743799492785412e+01 -9.7664212513500232e+01 0 0 0
926 27 2 0.0000000000000000e+00 -7.4750852298279256e+01 2.3507510810271640e+01 -1.0001438669040989e+02 0 0 0
925 27 2 0.0000000000000000e+00 -7.7349901036849147e+01 2.1021764998780572e+01 -9.0718542744975935e+01 0 0 0
5132 147 4 0.0000000000000000e+00 -5.7334019536092001e+01 1.2852019074536425e+01 -9.0107868774269008e+01 0 0 0
3378 97 1 0.0000000000000000e+00 -6.0354143877034097e+01 1.5245898588122754e+01 -1.0063781042205107e+02 0 0 0
6535 187 3 0.0000000000000000e+00 -6.7044862520702338e+01 1.7234771908534849e+01 -9.1073853823313385e+01 0 0 0
3377 97 2 0.0000000000000000e+00 -6.2454866574817316e+01 2.4646646009026181e+01 -9.7011950577752202e+01 0 0 0
804 23 2 0.0000000000000000e+00 -4.2067671971716969e+01 2.0935064626366820e+01 -9.4474570090964463e+01 0 0 0
5107 146 3 0.0000000000000000e+00 -2.8595173943635128e+01 2.2720769550112042e+01 -1.0254794927049379e+02 0 0 0
2937 84 1 0.0000000000000000e+00 -1.4158244085568580e+02 3.8458078955905613e+01 -9.6426392403626906e+01 0 0 0
2936 84 2 0.0000000000000000e+00 -1.3619641282788666e+02 3.1764663708955698e+01 -9.0497517890145730e+01 0 0 0
6541 187 4 0.0000000000000000e+00 -1.1252670487473203e+02 2.6684192157817964e+01 -1.0100534735696326e+02 0 0 0
6877 197 4 0.0000000000000000e+00 -1.2005885127924552e+02 3.1103610747186458e+01 -9.1100024497934228e+01 0 0 0
2909 84 1 0.0000000000000000e+00 -8.6638420225368350e+01 3.4416723266914296e+01 -1.0079963029027795e+02 0 0 0
930 27 2 0.0000000000000000e+00 -7.7374255443031473e+01 3.8136563538029250e+01 -9.5320483029060696e+01 0 0 0