LAMMPS data file via write_data, version 5 Jun 2019, timestep = 460000000

7000 atoms
4 atom types
7278 bonds
3 bond types
6600 angles
2 angle types

-5.0000000000000000e+02 5.0000000000000000e+02 xlo xhi
-5.0000000000000000e+02 5.0000000000000000e+02 ylo yhi
-5.0000000000000000e+02 5.0000000000000000e+02 zlo zhi

Masses

1 1000
2 1000
3 1000
4 1000

Pair Coeffs # lj/cut

1 0.296 10
2 0.296 10
3 0.296 10
4 0.296 10

Angle Coeffs # cosine

1 2
2 2

Atoms # full

2068 60 2 0.0000000000000000e+00 -7.9414836450970682e+01 4.2690766327839896e+01 -1.6477509538442177e+02 0 0 0
2067 60 2 0.0000000000000000e+00 -7.0685660030785471e+01 3.9986493472372651e+01 -1.6727061978637298e+02 0 0 0
2088 60 2 0.0000000000000000e+00 -9.2122570062269588e+01 -3.2686378976077982e+01 -1.5022458932605971e+02 0 0 0
6265 179 4 0.0000000000000000e+00 -8.3194577246135381e+01 -3.2528097648176690e+01 -1.5661102501342788e+02 0 0 0
6510 186 4 0.0000000000000000e+00 -7.3354127231233349e+01 -2.8885237035171244e+01 -1.5645886047954770e+02 0 0 0
6509 186 4 0.0000000000000000e+00 -7.3015525726626379e+01 -2.0023977745714237e+01 -1.5119826441228352e+02 0 0 0
2072 60 2 0.0000000000000000e+00 -7.7335590683785910e+01 7.2503487967450937e+00 -1.5538605132589811e+02 0 0 0
2073 60 2 0.0000000000000000e+00 -6.8242007708380612e+01 1.0234756717467114e+01 -1.5201455890324939e+02 0 0 0
1638 47 2 0.0000000000000000e+00 -3.5169639423764089e+01 1.6602383376741297e+01 -1.6140573870995215e+02 0 0 0
2071 60 2 0.0000000000000000e+00 -7.9151684039680589e+01 1.7022587543289646e+01 -1.5436764249149891e+02 0 0 0
2070 60 2 0.0000000000000000e+00 -8.0398336910716353e+01 2.7007376054475809e+01 -1.5342610391376064e+02 0 0 0
1639 47 2 0.0000000000000000e+00 -4.1389873920069498e+01 2.3668233552156348e+01 -1.5998258746250261e+02 0 0 0
2069 60 1 0.0000000000000000e+00 -7.9282081638583051e+01 3.6075853854615595e+01 -1.5767532255428648e+02 0 0 0
6529 187 4 0.0000000000000000e+00 -6.7202280760706373e+01 3.4759184219900497e+01 -1.5474557224936564e+02 0 0 0
2066 60 2 0.0000000000000000e+00 -6.3673030078417639e+01 4.3373914715843149e+01 -1.6136015205599523e+02 0 0 0
6530 187 4 0.0000000000000000e+00 -5.7157954099519273e+01 3.2230364297735548e+01 -1.5707249699746313e+02 0 0 0
3634 104 4 0.0000000000000000e+00 -5.1272427082371337e+01 4.2589551726309473e+01 -1.5088569039650554e+02 0 0 0
1640 47 2 0.0000000000000000e+00 -4.4702923691167591e+01 3.2296517744570885e+01 -1.5624793889021035e+02 0 0 0
3637 104 3 0.0000000000000000e+00 -7.6389920571620607e+01 5.0925457221676524e+01 -1.5646153056113064e+02 0 0 0
3636 104 4 0.0000000000000000e+00 -6.8846556727430084e+01 4.5785924745064293e+01 -1.5198063271039183e+02 0 0 0
2087 60 2 0.0000000000000000e+00 -8.4898403873521133e+01 -3.9216358686178751e+01 -1.4717810284137855e+02 0 0 0
2086 60 2 0.0000000000000000e+00 -7.6831734698583844e+01 -4.4608601357966478e+01 -1.4727129464339313e+02 0 0 0
2085 60 2 0.0000000000000000e+00 -7.2213908416717274e+01 -4.7881866199564200e+01 -1.3812319611115049e+02 0 0 0
2089 60 2 0.0000000000000000e+00 -1.0000096101491337e+02 -3.0165493642776248e+01 -1.4486581349202743e+02 0 0 0
6263 179 4 0.0000000000000000e+00 -8.8071363034075191e+01 -2.4194058032464774e+01 -1.4292356731952589e+02 0 0 0
6264 179 4 0.0000000000000000e+00 -8.1097032028597070e+01 -2.5913556308813206e+01 -1.4936779096809229e+02 0 0 0
6239 179 4 0.0000000000000000e+00 -5.5785570799318933e+01 -2.9436319073374609e+01 -1.3905732468364940e+02 0 0 0
6262 179 3 0.0000000000000000e+00 -9.5299788705293579e+01 -2.0790368693488549e+01 -1.3815293799838216e+02 0 0 0
6508 186 4 0.0000000000000000e+00 -7.1933931035909367e+01 -1.2899610615875305e+01 -1.4455971573390173e+02 0 0 0
6507 186 3 0.0000000000000000e+00 -6.9465589403099372e+01 -1.8338492242277958e+01 -1.3629375087293096e+02 0 0 0
6238 179 4 0.0000000000000000e+00 -4.9859419601649613e+01 -2.1209953606531826e+01 -1.3941120446853668e+02 0 0 0
6237 179 4 0.0000000000000000e+00 -5.2906170949241954e+01 -1.1084948276297895e+01 -1.3794655650386906e+02 0 0 0
3011 87 2 0.0000000000000000e+00 -4.4252910204990933e+01 -3.9105692796266309e+00 -1.4096827677258895e+02 0 0 0
5352 153 3 0.0000000000000000e+00 -6.0693673762977774e+01 3.2289999174593689e+00 -1.3606637056130154e+02 0 0 0
2074 60 2 0.0000000000000000e+00 -6.3616560666030558e+01 1.2087314586944686e+01 -1.4407924772146461e+02 0 0 0
5351 153 4 0.0000000000000000e+00 -5.5862677483579333e+01 4.9655671028137238e+00 -1.4517996497201250e+02 0 0 0
5350 153 4 0.0000000000000000e+00 -4.6316418017246413e+01 7.4138688916123439e+00 -1.4356222401160477e+02 0 0 0
5349 153 4 0.0000000000000000e+00 -3.7259973303064001e+01 1.1463630637068851e+01 -1.4427016348850441e+02 0 0 0
6531 187 4 0.0000000000000000e+00 -5.6043796207180982e+01 2.9854972153886141e+01 -1.4713294107927626e+02 0 0 0
6532 187 4 0.0000000000000000e+00 -5.4860364675583874e+01 2.2416363912366233e+01 -1.4097402166074787e+02 0 0 0
3014 87 1 0.0000000000000000e+00 -4.2851187016215611e+01 2.1521666402074100e+01 -1.3708319079494814e+02 0 0 0
5135 147 3 0.0000000000000000e+00 -3.1825911388961639e+01 2.1593220136459049e+01 -1.3843198640229690e+02 0 0 0
6522 187 4 0.0000000000000000e+00 -1.1816635687765323e+02 3.8289690661984537e+01 -1.3787757667669402e+02 0 0 0
6528 187 3 0.0000000000000000e+00 -7.4414260633934560e+01 3.6091000191601651e+01 -1.4805013738693452e+02 0 0 0
6527 187 4 0.0000000000000000e+00 -8.3738855116108880e+01 4.0183720397541151e+01 -1.4748948828882686e+02 0 0 0
5915 169 4 0.0000000000000000e+00 -6.6009831755962210e+01 3.1184699424411804e+01 -1.4359702325993032e+02 0 0 0
3635 104 4 0.0000000000000000e+00 -6.0562920607775546e+01 4.1220354288510777e+01 -1.4809495331202541e+02 0 0 0
1642 47 1 0.0000000000000000e+00 -4.9036154514337866e+01 3.8308958167403041e+01 -1.3961119385345836e+02 0 0 0
1641 47 2 0.0000000000000000e+00 -4.4356400209456716e+01 3.3316310936643816e+01 -1.4634064398652646e+02 0 0 0
3015 87 2 0.0000000000000000e+00 -3.8426651693193953e+01 3.0502994436586796e+01 -1.3746868992975112e+02 0 0 0
6523 187 4 0.0000000000000000e+00 -1.1086292065632897e+02 4.4786400813934385e+01 -1.4014943748581612e+02 0 0 0
6524 187 4 0.0000000000000000e+00 -1.0669820393355354e+02 5.3410581837217528e+01 -1.3932059068935575e+02 0 0 0
6525 187 4 0.0000000000000000e+00 -9.8098894567410142e+01 5.1022810620368574e+01 -1.4439972601876855e+02 0 0 0
6526 187 4 0.0000000000000000e+00 -8.8920714037542069e+01 4.8648990284742553e+01 -1.4594795380969720e+02 0 0 0
486 14 2 0.0000000000000000e+00 -7.5200171765226600e+01 5.5240172041022269e+01 -1.4684579433488679e+02 0 0 0
485 14 2 0.0000000000000000e+00 -8.3658182672297301e+01 5.6835952107218660e+01 -1.4292846094735120e+02 0 0 0
3198 92 2 0.0000000000000000e+00 -6.2415258712342130e+01 5.5277333590344519e+01 -1.4045924414676924e+02 0 0 0
3633 104 4 0.0000000000000000e+00 -5.4614689307654871e+01 4.7406300090836176e+01 -1.4298114274593345e+02 0 0 0
4726 136 4 0.0000000000000000e+00 -4.7811244990572163e+01 -5.5041136985875283e+01 -1.3009242351432039e+02 0 0 0
6257 179 4 0.0000000000000000e+00 -1.0434518404681619e+02 -4.0590679971466400e+01 -1.2688429043222793e+02 0 0 0
6258 179 4 0.0000000000000000e+00 -1.1028340610290246e+02 -3.9994878528342959e+01 -1.3512118448656724e+02 0 0 0
2092 60 2 0.0000000000000000e+00 -8.8092831524886208e+01 -4.1988313548725763e+01 -1.2700089416829101e+02 0 0 0
2093 60 2 0.0000000000000000e+00 -7.8786898228698917e+01 -4.4478922318417602e+01 -1.2495705990612824e+02 0 0 0
2084 60 2 0.0000000000000000e+00 -6.6592401130975958e+01 -4.8878170470217860e+01 -1.2988470372691714e+02 0 0 0
2083 60 1 0.0000000000000000e+00 -5.9867319836235723e+01 -4.8191419445777854e+01 -1.2303803347596813e+02 0 0 0
6259 179 4 0.0000000000000000e+00 -1.1084662928451843e+02 -3.1476242803300639e+01 -1.2898286474456194e+02 0 0 0
2090 60 1 0.0000000000000000e+00 -1.0097446208559303e+02 -2.9929549438800841e+01 -1.3518922680855977e+02 0 0 0
2091 60 2 0.0000000000000000e+00 -9.5530296550166142e+01 -3.5523688318889654e+01 -1.2890069686487368e+02 0 0 0
6503 186 4 0.0000000000000000e+00 -8.6823478526750804e+01 -2.4209006955845929e+01 -1.3089139220646544e+02 0 0 0
6504 186 4 0.0000000000000000e+00 -8.0578155583681180e+01 -3.0489542502685754e+01 -1.2619530957848582e+02 0 0 0
6505 186 4 0.0000000000000000e+00 -7.1588048855873510e+01 -3.3166435890498541e+01 -1.2722637909397488e+02 0 0 0
6240 179 4 0.0000000000000000e+00 -6.3107140756558465e+01 -3.3300025366510695e+01 -1.3284925987797502e+02 0 0 0
6506 186 4 0.0000000000000000e+00 -6.8393626131605743e+01 -2.4233024586811545e+01 -1.2878720591092309e+02 0 0 0
6241 179 3 0.0000000000000000e+00 -6.2322963656736391e+01 -3.7280502256652490e+01 -1.2354780893090241e+02 0 0 0
6261 179 4 0.0000000000000000e+00 -1.0242606897478305e+02 -1.8690313937382420e+01 -1.3094975469926985e+02 0 0 0
6260 179 4 0.0000000000000000e+00 -1.0903772176033267e+02 -2.2741748186439388e+01 -1.2424192573106889e+02 0 0 0
6502 186 4 0.0000000000000000e+00 -8.8544838212778814e+01 -1.4533223312477629e+01 -1.2798761291905643e+02 0 0 0
1536 44 2 0.0000000000000000e+00 -7.4634425134701047e+01 -1.6224001885528750e+01 -1.2611980896072906e+02 0 0 0
1537 44 1 0.0000000000000000e+00 -6.7069728578105597e+01 -1.1428292035838423e+01 -1.2776611953450573e+02 0 0 0
1538 44 2 0.0000000000000000e+00 -5.9148331968223559e+01 -1.6925018315363449e+01 -1.3008583753499585e+02 0 0 0
1539 44 2 0.0000000000000000e+00 -4.8935762863331497e+01 -1.6449289978044234e+01 -1.3071483460943492e+02 0 0 0
6307 181 4 0.0000000000000000e+00 -3.6489981492682247e+01 -1.6552451575344723e+01 -1.2882334390921801e+02 0 0 0
6501 186 4 0.0000000000000000e+00 -9.2118718388747013e+01 -5.8444797863702806e+00 -1.2467060683289762e+02 0 0 0
5353 153 4 0.0000000000000000e+00 -6.7044809169580532e+01 2.7519355376698504e+00 -1.2843039336747924e+02 0 0 0
6236 179 4 0.0000000000000000e+00 -5.4908641833936102e+01 -4.8422440823264390e+00 -1.3001128707390410e+02 0 0 0
3012 87 2 0.0000000000000000e+00 -4.7451175301092782e+01 1.9852233736567828e+00 -1.3321265674860678e+02 0 0 0
1540 44 2 0.0000000000000000e+00 -4.3283775009196042e+01 -8.7220028147573814e+00 -1.3070029668970608e+02 0 0 0
630 18 2 0.0000000000000000e+00 -6.5329719283152514e+01 1.5017874334052618e+01 -1.2564953819962241e+02 0 0 0
2075 60 2 0.0000000000000000e+00 -5.7946802687739840e+01 1.2485830571370823e+01 -1.3563852729999928e+02 0 0 0
2076 60 1 0.0000000000000000e+00 -5.5539469114801996e+01 8.7899308592383676e+00 -1.2759048519837010e+02 0 0 0
3013 87 2 0.0000000000000000e+00 -4.5078679351515149e+01 1.1836604858534791e+01 -1.3406348224474013e+02 0 0 0
5133 147 4 0.0000000000000000e+00 -3.5797255143848801e+01 9.9165272298478850e+00 -1.2423188214157048e+02 0 0 0
6534 187 4 0.0000000000000000e+00 -6.2226578177086417e+01 2.4594267013753832e+01 -1.2687925243112176e+02 0 0 0
6535 187 3 0.0000000000000000e+00 -7.1302458065136108e+01 2.3691376229267643e+01 -1.2307199237231586e+02 0 0 0
6533 187 4 0.0000000000000000e+00 -5.3663910800663785e+01 2.5384060755507072e+01 -1.3141292726607810e+02 0 0 0
629 18 2 0.0000000000000000e+00 -5.6150317677817625e+01 1.7454091536007663e+01 -1.2258268698721541e+02 0 0 0
628 18 2 0.0000000000000000e+00 -4.6484928729514557e+01 1.9549979251673523e+01 -1.2446628035897919e+02 0 0 0
5134 147 4 0.0000000000000000e+00 -3.2209849959006334e+01 1.7473447676369609e+01 -1.2933790999106390e+02 0 0 0
627 18 1 0.0000000000000000e+00 -3.7104869502400589e+01 2.3675250895235450e+01 -1.2349234492863334e+02 0 0 0
6521 187 3 0.0000000000000000e+00 -1.2379563172698772e+02 3.1800226151368157e+01 -1.3223900727092564e+02 0 0 0
3189 92 1 0.0000000000000000e+00 -1.1391202801012450e+02 3.6974302223675508e+01 -1.2824866172563802e+02 0 0 0
2488 72 2 0.0000000000000000e+00 -9.6414400690094752e+01 3.2385158056507684e+01 -1.2446561023946289e+02 0 0 0
2489 72 1 0.0000000000000000e+00 -8.8614349298459231e+01 3.7290804339723579e+01 -1.2860636174860718e+02 0 0 0
5913 169 4 0.0000000000000000e+00 -7.4179321211519280e+01 3.5915256489667414e+01 -1.2565883294930050e+02 0 0 0
5914 169 4 0.0000000000000000e+00 -7.1461513287425603e+01 3.5424149792555319e+01 -1.3508944526846486e+02 0 0 0
1644 47 2 0.0000000000000000e+00 -6.2346314820125450e+01 3.6786365465963364e+01 -1.2620643414764413e+02 0 0 0
1643 47 2 0.0000000000000000e+00 -5.7768234735661380e+01 3.6139032501712187e+01 -1.3496006445029332e+02 0 0 0
5100 146 3 0.0000000000000000e+00 -4.8173715061443467e+01 3.5128264393122819e+01 -1.2908278966844799e+02 0 0 0
3016 87 2 0.0000000000000000e+00 -3.9492229695777880e+01 4.0774538997398622e+01 -1.3507638252255086e+02 0 0 0
5099 146 4 0.0000000000000000e+00 -4.0647354334047066e+01 3.7902935689298843e+01 -1.2348855574698692e+02 0 0 0
626 18 2 0.0000000000000000e+00 -3.1392861343257554e+01 3.0794293871051352e+01 -1.2791757716423130e+02 0 0 0
3188 92 2 0.0000000000000000e+00 -1.2020455263277825e+02 4.4629884631285357e+01 -1.2835813612938560e+02 0 0 0
3187 92 2 0.0000000000000000e+00 -1.2312362656868244e+02 5.4388098431234084e+01 -1.2938436582121210e+02 0 0 0
1731 50 2 0.0000000000000000e+00 -1.1259634561409437e+02 5.6962564454258803e+01 -1.2673478030060720e+02 0 0 0
5426 156 4 0.0000000000000000e+00 -9.4576608769747637e+01 4.6662467594290334e+01 -1.3415262854805619e+02 0 0 0
5427 156 4 0.0000000000000000e+00 -8.8003571888843652e+01 5.4048486594449962e+01 -1.3356775706660591e+02 0 0 0
2490 72 2 0.0000000000000000e+00 -8.2970293860579915e+01 4.5390137993585085e+01 -1.3088018419791476e+02 0 0 0
2491 72 2 0.0000000000000000e+00 -7.6912937601509640e+01 5.2748649741135182e+01 -1.2874966570198970e+02 0 0 0
3197 92 2 0.0000000000000000e+00 -6.3536591095224203e+01 5.6248842546722663e+01 -1.3092509089273767e+02 0 0 0
3632 104 4 0.0000000000000000e+00 -5.5169856076182690e+01 4.8338743501824808e+01 -1.3325262870312574e+02 0 0 0
3631 104 4 0.0000000000000000e+00 -5.1598988490083478e+01 5.4294114463003311e+01 -1.2598557641763220e+02 0 0 0
3017 87 2 0.0000000000000000e+00 -3.7642171176804595e+01 5.0431533610176210e+01 -1.3378199774298972e+02 0 0 0
1366 40 2 0.0000000000000000e+00 -7.6124412998360967e+01 -5.1564622026309429e+01 -1.1607862192856534e+02 0 0 0
1367 40 2 0.0000000000000000e+00 -8.4192402306260860e+01 -5.6391733438973667e+01 -1.1212446134275754e+02 0 0 0
4727 136 4 0.0000000000000000e+00 -5.0120968083341616e+01 -5.2456205933723609e+01 -1.2057536311941354e+02 0 0 0
3395 97 2 0.0000000000000000e+00 -3.8788156918644432e+01 -6.0105499046812817e+01 -1.1223314230722561e+02 0 0 0
6256 179 4 0.0000000000000000e+00 -9.8605039638888130e+01 -4.6605633753588229e+01 -1.2133054390358396e+02 0 0 0
6255 179 3 0.0000000000000000e+00 -9.1574307661237881e+01 -4.7244116913643872e+01 -1.1404324801533804e+02 0 0 0
2094 60 2 0.0000000000000000e+00 -7.1801443652960828e+01 -4.1594044893416687e+01 -1.1821863606548833e+02 0 0 0
2095 60 2 0.0000000000000000e+00 -6.5470930384968042e+01 -4.2695624211596041e+01 -1.1060987289656062e+02 0 0 0
2082 60 2 0.0000000000000000e+00 -5.4411853711392247e+01 -4.2457225830775776e+01 -1.1679717575147436e+02 0 0 0
4728 136 4 0.0000000000000000e+00 -4.6445861838483545e+01 -4.7418261521185535e+01 -1.1250257709664531e+02 0 0 0
6243 179 4 0.0000000000000000e+00 -7.4474235810928178e+01 -3.1906270261006284e+01 -1.1037361213046772e+02 0 0 0
6242 179 4 0.0000000000000000e+00 -6.6290076456301932e+01 -3.2070281742835526e+01 -1.1669580628094062e+02 0 0 0
2081 60 2 0.0000000000000000e+00 -5.5672207422924338e+01 -3.2631909344199876e+01 -1.1384536844358374e+02 0 0 0
2831 81 2 0.0000000000000000e+00 -4.5360968809597857e+01 -3.3772491778151739e+01 -1.1214759110766568e+02 0 0 0
2833 81 2 0.0000000000000000e+00 -3.1809962537122697e+01 -2.8000806855990536e+01 -1.2239603684850265e+02 0 0 0
2832 81 1 0.0000000000000000e+00 -3.7757063105951723e+01 -3.4939895252738900e+01 -1.1780626141168830e+02 0 0 0
6309 181 4 0.0000000000000000e+00 -3.6053804091691504e+01 -2.6095858462268961e+01 -1.1240099511044922e+02 0 0 0
1373 40 2 0.0000000000000000e+00 -1.1553942067783646e+02 -1.2963457333843296e+01 -1.1051631989080968e+02 0 0 0
1372 40 2 0.0000000000000000e+00 -1.1115928352759505e+02 -2.2371953979392053e+01 -1.1116033518613523e+02 0 0 0
1533 44 2 0.0000000000000000e+00 -9.8768747049156673e+01 -1.6121876218646893e+01 -1.1294543679407963e+02 0 0 0
1534 44 2 0.0000000000000000e+00 -8.9757841166692572e+01 -2.0819853958849485e+01 -1.1468611728103276e+02 0 0 0
1535 44 2 0.0000000000000000e+00 -8.2234853482726464e+01 -1.9963608293023970e+01 -1.2057246309230135e+02 0 0 0
3381 97 2 0.0000000000000000e+00 -8.3211259935004733e+01 -1.1209572119484847e+01 -1.1033358361535112e+02 0 0 0
2828 81 2 0.0000000000000000e+00 -6.5209824995461858e+01 -2.3927219324687229e+01 -1.0956592957454878e+02 0 0 0
2080 60 2 0.0000000000000000e+00 -5.3351770562162230e+01 -2.2866553880791145e+01 -1.1482703642802601e+02 0 0 0
2079 60 2 0.0000000000000000e+00 -4.7395448090797430e+01 -1.6114199378000304e+01 -1.1932704841775946e+02 0 0 0
6234 179 3 0.0000000000000000e+00 -5.5669018188607289e+01 -1.2532384178787963e+01 -1.1139875679264466e+02 0 0 0
6308 181 4 0.0000000000000000e+00 -3.8621939929890566e+01 -2.0728304127380806e+01 -1.1987490882855415e+02 0 0 0
1532 44 2 0.0000000000000000e+00 -1.0582430831647066e+02 -9.5818419178149323e+00 -1.1607120454233817e+02 0 0 0
1531 44 2 0.0000000000000000e+00 -1.0735820637157322e+02 1.2488406390544231e-01 -1.1738660028971653e+02 0 0 0
6500 186 3 0.0000000000000000e+00 -9.5275401478502502e+01 -9.1536905468385377e-01 -1.1715493495796679e+02 0 0 0
3380 97 2 0.0000000000000000e+00 -8.1442626380039016e+01 -8.5557625795648862e-01 -1.1045427958685833e+02 0 0 0
5354 153 4 0.0000000000000000e+00 -6.9548246083953643e+01 -2.9244358840404621e+00 -1.2070696022563027e+02 0 0 0
5355 153 4 0.0000000000000000e+00 -6.6103937735315256e+01 -7.1580537254391112e+00 -1.1266909083004003e+02 0 0 0
2077 60 2 0.0000000000000000e+00 -4.9397643645107628e+01 2.8410167394417720e+00 -1.2214827223759168e+02 0 0 0
6235 179 4 0.0000000000000000e+00 -5.6680019054138150e+01 -8.1563403471434164e+00 -1.2034239037196456e+02 0 0 0
2078 60 2 0.0000000000000000e+00 -4.7665747903857223e+01 -5.9559701824101259e+00 -1.1680173388928299e+02 0 0 0
5131 147 4 0.0000000000000000e+00 -3.4849740465380329e+01 -5.7695110148341788e+00 -1.1151236280043591e+02 0 0 0
5132 147 4 0.0000000000000000e+00 -3.5353789253242809e+01 1.4134427913099450e+00 -1.1881720401517840e+02 0 0 0
1528 44 2 0.0000000000000000e+00 -1.1833156008641274e+02 1.5382364086777766e+01 -1.1517410155716568e+02 0 0 0
1530 44 1 0.0000000000000000e+00 -1.0191693890792962e+02 8.4012983036078399e+00 -1.1599886178606579e+02 0 0 0
1529 44 2 0.0000000000000000e+00 -1.0873498789760224e+02 1.5107048964214419e+01 -1.1781520294158159e+02 0 0 0
3379 97 2 0.0000000000000000e+00 -7.6379817961576919e+01 6.1105977595791732e+00 -1.1546158307498996e+02 0 0 0
3378 97 1 0.0000000000000000e+00 -7.1309091630076253e+01 1.4302631438720166e+01 -1.1705004315810639e+02 0 0 0
1611 47 2 0.0000000000000000e+00 -4.6592032548151202e+01 1.1152901873831391e+01 -1.1452545730435166e+02 0 0 0
2487 72 2 0.0000000000000000e+00 -1.0037875934414497e+02 2.6256771935608707e+01 -1.1684604913718550e+02 0 0 0
6536 187 4 0.0000000000000000e+00 -8.0182120713015564e+01 2.3962144043917903e+01 -1.1901824431017626e+02 0 0 0
6537 187 4 0.0000000000000000e+00 -8.3446545875676307e+01 2.3796697234596024e+01 -1.1005864223782010e+02 0 0 0
3377 97 2 0.0000000000000000e+00 -6.5078629431442906e+01 2.1716913275460755e+01 -1.1611876438935752e+02 0 0 0
3376 97 2 0.0000000000000000e+00 -5.9927315391595521e+01 2.8761863489020005e+01 -1.1076776149974097e+02 0 0 0
6511 187 4 0.0000000000000000e+00 -7.0112257104492130e+01 2.9938488246838581e+01 -1.1563830203044766e+02 0 0 0
5102 146 4 0.0000000000000000e+00 -4.8658623349030094e+01 2.9763520103942952e+01 -1.1604658070820388e+02 0 0 0
5344 153 4 0.0000000000000000e+00 -3.6988832721186988e+01 1.6782331899632602e+01 -1.1528424682010588e+02 0 0 0
2927 84 2 0.0000000000000000e+00 -1.3723989996945238e+02 3.6849319678810765e+01 -1.1334281644424647e+02 0 0 0
6520 187 4 0.0000000000000000e+00 -1.2227917546408709e+02 3.1327944470686884e+01 -1.2188420281961633e+02 0 0 0
6519 187 4 0.0000000000000000e+00 -1.1825644550479603e+02 3.3509445498121416e+01 -1.1289918680765813e+02 0 0 0
3190 92 2 0.0000000000000000e+00 -1.1011264159365764e+02 3.1121995632076999e+01 -1.2168679053665080e+02 0 0 0
3191 92 2 0.0000000000000000e+00 -1.0542979842095842e+02 3.7045226019512882e+01 -1.1576564288089796e+02 0 0 0
3192 92 2 0.0000000000000000e+00 -9.7194192361425166e+01 4.2623330733134921e+01 -1.1765846777256317e+02 0 0 0
5911 169 4 0.0000000000000000e+00 -9.0250280321334245e+01 3.1485248740323879e+01 -1.1557858059902027e+02 0 0 0
5912 169 3 0.0000000000000000e+00 -8.1996400825813112e+01 3.4551051131579406e+01 -1.1990862499844663e+02 0 0 0
3375 97 2 0.0000000000000000e+00 -6.4796132169653831e+01 3.7942886265224075e+01 -1.1116169836133986e+02 0 0 0
1645 47 2 0.0000000000000000e+00 -6.8284805498451419e+01 4.2333942922947394e+01 -1.1995332874486581e+02 0 0 0
5101 146 4 0.0000000000000000e+00 -5.3763934789720459e+01 3.6857390871159197e+01 -1.2074100004895304e+02 0 0 0
5098 146 4 0.0000000000000000e+00 -3.1391542936761653e+01 4.0497898532331590e+01 -1.2192745839903449e+02 0 0 0
6881 197 4 0.0000000000000000e+00 -1.4635303928200744e+02 4.6184027289796326e+01 -1.1093068667313567e+02 0 0 0
6882 197 4 0.0000000000000000e+00 -1.4819936806204288e+02 5.5798754712093483e+01 -1.1054789021037145e+02 0 0 0
2926 84 2 0.0000000000000000e+00 -1.3311526814297076e+02 4.4262180109111881e+01 -1.1899378002059322e+02 0 0 0
2925 84 2 0.0000000000000000e+00 -1.2361400295856016e+02 4.6725936203327251e+01 -1.1768952666056958e+02 0 0 0
2924 84 2 0.0000000000000000e+00 -1.1497904800077065e+02 4.4390324474388656e+01 -1.1389732894973251e+02 0 0 0
6186 177 4 0.0000000000000000e+00 -1.1922640814581501e+02 5.6610322951867957e+01 -1.1359600874619407e+02 0 0 0
3193 92 2 0.0000000000000000e+00 -8.7709000518950759e+01 4.4658537953430482e+01 -1.2108289719379044e+02 0 0 0
3194 92 2 0.0000000000000000e+00 -7.8412687033484005e+01 4.6100549477560115e+01 -1.1826349451846866e+02 0 0 0
3195 92 2 0.0000000000000000e+00 -7.2025264174096520e+01 5.3740205375215588e+01 -1.1649308687021519e+02 0 0 0
3373 97 2 0.0000000000000000e+00 -6.4614603541567718e+01 5.2436520812170265e+01 -1.0912000579718855e+02 0 0 0
3374 97 2 0.0000000000000000e+00 -5.8659371103209914e+01 4.5805668825295868e+01 -1.1317736306462118e+02 0 0 0
3630 104 3 0.0000000000000000e+00 -4.7516252792699184e+01 5.4462170643967426e+01 -1.1652013064281255e+02 0 0 0
1307 38 2 0.0000000000000000e+00 -4.2191364049391829e+01 4.5869635323537757e+01 -1.1281633747470580e+02 0 0 0
1368 40 2 0.0000000000000000e+00 -9.3070449012731885e+01 -5.5398992478958618e+01 -1.0786358632516185e+02 0 0 0
3394 97 2 0.0000000000000000e+00 -3.8914552707395451e+01 -5.3101961397001460e+01 -1.0481430417002822e+02 0 0 0
1370 40 2 0.0000000000000000e+00 -1.0452111631743702e+02 -3.9998840729796875e+01 -1.0875393987777751e+02 0 0 0
1369 40 1 0.0000000000000000e+00 -1.0087295170840933e+02 -4.9522190888496048e+01 -1.0805118563079884e+02 0 0 0
2823 81 2 0.0000000000000000e+00 -9.3973745035818581e+01 -4.2196481178347213e+01 -1.0071329171353477e+02 0 0 0
6253 179 4 0.0000000000000000e+00 -8.5976728812500355e+01 -4.9948049924429867e+01 -9.8801067754474658e+01 0 0 0
6254 179 4 0.0000000000000000e+00 -8.3282917609253062e+01 -4.7764418340962727e+01 -1.0833096502957676e+02 0 0 0
6245 179 4 0.0000000000000000e+00 -7.3583377391825451e+01 -4.9371613390020606e+01 -1.0152107032414513e+02 0 0 0
6244 179 4 0.0000000000000000e+00 -7.4039204725073532e+01 -4.0101462534333486e+01 -1.0535480411395588e+02 0 0 0
2096 60 2 0.0000000000000000e+00 -5.7978549674781000e+01 -4.6162309566008666e+01 -1.0484537876800987e+02 0 0 0
2097 60 1 0.0000000000000000e+00 -5.3520540755027348e+01 -5.0362079550500184e+01 -9.6409079592357060e+01 0 0 0
6312 181 4 0.0000000000000000e+00 -4.5266578454178934e+01 -4.2747143752089862e+01 -9.5999080818440603e+01 0 0 0
4729 136 3 0.0000000000000000e+00 -3.9222301676810034e+01 -4.1216935591778523e+01 -1.0844229892665338e+02 0 0 0
3393 97 2 0.0000000000000000e+00 -3.2004531167425711e+01 -4.7973588189581044e+01 -9.9525389704751376e+01 0 0 0
1371 40 2 0.0000000000000000e+00 -1.0891907903177894e+02 -3.1411788991893683e+01 -1.0815241786311486e+02 0 0 0
2824 81 2 0.0000000000000000e+00 -9.2305121870236633e+01 -3.3835539683994718e+01 -1.0634811688345198e+02 0 0 0
5542 159 4 0.0000000000000000e+00 -9.6109037704651683e+01 -2.6949447394415252e+01 -1.0029975488485408e+02 0 0 0
2825 81 1 0.0000000000000000e+00 -8.6118096227837711e+01 -2.6042257936533929e+01 -1.0500973571717601e+02 0 0 0
6314 181 4 0.0000000000000000e+00 -5.9695926355519390e+01 -3.1345278776603315e+01 -9.5840315306223289e+01 0 0 0
2829 81 2 0.0000000000000000e+00 -5.7427969448217134e+01 -2.7385956800460093e+01 -1.0404053130031699e+02 0 0 0
2830 81 2 0.0000000000000000e+00 -5.1804250632796759e+01 -3.6251550741902832e+01 -1.0445555830629748e+02 0 0 0
6311 181 3 0.0000000000000000e+00 -3.7489809850504578e+01 -3.6327751786985985e+01 -9.6541952654814494e+01 0 0 0
6310 181 4 0.0000000000000000e+00 -3.3787043724921659e+01 -2.9503471268260100e+01 -1.0291725905713494e+02 0 0 0
5544 159 4 0.0000000000000000e+00 -1.0893202181896025e+02 -1.5915913631786607e+01 -1.0110040016192971e+02 0 0 0
5543 159 4 0.0000000000000000e+00 -9.9719045173271880e+01 -1.8290481301503316e+01 -9.8012851058516688e+01 0 0 0
2826 81 2 0.0000000000000000e+00 -7.9970094456531044e+01 -1.9111489615138044e+01 -1.0169387707008114e+02 0 0 0
3382 97 2 0.0000000000000000e+00 -7.3844932905310799e+01 -1.2400131119482694e+01 -1.0711991474726615e+02 0 0 0
2827 81 2 0.0000000000000000e+00 -7.0276725302707376e+01 -2.1386547828355226e+01 -1.0129456995482833e+02 0 0 0
6233 179 4 0.0000000000000000e+00 -5.2270573919784923e+01 -1.6395071660850384e+01 -1.0279828390992381e+02 0 0 0
5129 147 4 0.0000000000000000e+00 -3.6430397272712462e+01 -1.5939785843661410e+01 -9.7254094780534658e+01 0 0 0
5130 147 4 0.0000000000000000e+00 -3.2125849267905551e+01 -1.3620205017492559e+01 -1.0612851370763666e+02 0 0 0
1374 40 2 0.0000000000000000e+00 -1.1736828637364542e+02 -3.5001535156256853e+00 -1.0728007011824336e+02 0 0 0
1375 40 2 0.0000000000000000e+00 -1.2339742387129482e+02 -3.2262605282770113e-01 -9.9946283047616504e+01 0 0 0
6499 186 4 0.0000000000000000e+00 -1.0059901770357703e+02 2.9535718349078766e-01 -1.0816248169867460e+02 0 0 0
6498 186 4 0.0000000000000000e+00 -9.9323212112718451e+01 -7.0350656315182194e+00 -1.0248163548149324e+02 0 0 0
1524 44 2 0.0000000000000000e+00 -9.5943947034770829e+01 1.1462334157657730e+00 -9.7968157814110626e+01 0 0 0
3383 97 2 0.0000000000000000e+00 -6.7984021677337523e+01 -6.3683526541041244e+00 -1.0161924962769218e+02 0 0 0
3384 97 2 0.0000000000000000e+00 -5.8964165560247046e+01 -7.0962312663111691e+00 -9.7552097316651398e+01 0 0 0
3385 97 1 0.0000000000000000e+00 -5.2009268825479225e+01 -5.1571661957108672e+00 -1.0411385367185312e+02 0 0 0
3386 97 2 0.0000000000000000e+00 -4.5733601198839665e+01 2.7906903561157490e+00 -1.0238872861328407e+02 0 0 0
3729 107 4 0.0000000000000000e+00 -1.3512152190203980e+02 1.5146072048362102e+01 -1.0054013827304387e+02 0 0 0
1527 44 2 0.0000000000000000e+00 -1.2250818355246956e+02 1.0768635085536229e+01 -1.0678397181527056e+02 0 0 0
3728 107 3 0.0000000000000000e+00 -1.2613765148132815e+02 1.3142747863764576e+01 -9.8104569864996094e+01 0 0 0
1526 44 2 0.0000000000000000e+00 -1.1358032331739794e+02 8.1205574599064807e+00 -1.0209941554676227e+02 0 0 0
1525 44 2 0.0000000000000000e+00 -1.0510944679371892e+02 4.3440663090409517e+00 -9.9163169746791496e+01 0 0 0
1523 44 1 0.0000000000000000e+00 -8.6724807841277524e+01 4.5999570738160891e+00 -9.6748266099941517e+01 0 0 0
1522 44 2 0.0000000000000000e+00 -7.7579806324862219e+01 6.3816758345979112e+00 -1.0099582793723587e+02 0 0 0
1521 44 2 0.0000000000000000e+00 -6.7894729290425573e+01 7.0224832691265755e+00 -9.6971260485220057e+01 0 0 0
1612 47 2 0.0000000000000000e+00 -3.9314147786613518e+01 1.0375347426879586e+01 -1.0782782010870891e+02 0 0 0
1613 47 2 0.0000000000000000e+00 -3.6275494449569912e+01 7.9125696305262689e+00 -9.8172894627500114e+01 0 0 0
4200 120 4 0.0000000000000000e+00 -4.2806224024153430e+01 1.6568841137314546e+01 -9.5678697540783830e+01 0 0 0
1740 50 1 0.0000000000000000e+00 -1.1533228472242298e+02 2.3409365527637053e+01 -9.7025992048170693e+01 0 0 0
6540 187 4 0.0000000000000000e+00 -1.0164129959719145e+02 1.9474475743223358e+01 -9.6794200717642639e+01 0 0 0
2486 72 2 0.0000000000000000e+00 -9.8022539871068247e+01 2.4977041568769142e+01 -1.0727536106163343e+02 0 0 0
6538 187 4 0.0000000000000000e+00 -8.5702644104693093e+01 2.1915590136370781e+01 -1.0083258444497230e+02 0 0 0
6512 187 4 0.0000000000000000e+00 -7.3978985199719730e+01 2.7937569987587278e+01 -1.0663917966944582e+02 0 0 0
5340 153 4 0.0000000000000000e+00 -6.9967410640384657e+01 1.7180590721327299e+01 -1.0028714142060996e+02 0 0 0
5341 153 4 0.0000000000000000e+00 -6.1127607759326111e+01 2.1255749255981257e+01 -1.0267108500262579e+02 0 0 0
5342 153 4 0.0000000000000000e+00 -5.1330853607401245e+01 2.1061590605570071e+01 -1.0437894860957060e+02 0 0 0
5343 153 4 0.0000000000000000e+00 -4.3315247896056576e+01 2.0596968729018624e+01 -1.0889091210860471e+02 0 0 0
2929 84 2 0.0000000000000000e+00 -1.4556845950387620e+02 3.8184989436372327e+01 -9.8303236950904832e+01 0 0 0
2928 84 2 0.0000000000000000e+00 -1.3929243408968642e+02 3.3448928287728819e+01 -1.0458226432811814e+02 0 0 0
1739 50 2 0.0000000000000000e+00 -1.2088055982437164e+02 3.0690793064420614e+01 -1.0112899833451627e+02 0 0 0
1738 50 2 0.0000000000000000e+00 -1.2217132484138762e+02 4.0295149883590000e+01 -1.0461298904503363e+02 0 0 0
6518 187 4 0.0000000000000000e+00 -1.1291747788370647e+02 3.7090219345392292e+01 -1.0560166177395988e+02 0 0 0
6517 187 4 0.0000000000000000e+00 -1.0495525193893093e+02 3.9296418965488556e+01 -9.9578676642737321e+01 0 0 0