LAMMPS data file via write_data, version 5 Jun 2019, timestep = 450000000

7000 atoms
4 atom types
7284 bonds
3 bond types
6600 angles
2 angle types

-5.0000000000000000e+02 5.0000000000000000e+02 xlo xhi
-5.0000000000000000e+02 5.0000000000000000e+02 ylo yhi
-5.0000000000000000e+02 5.0000000000000000e+02 zlo zhi

Masses

1 1000
2 1000
3 1000
4 1000

Pair Coeffs # lj/cut

1 0.296 10
2 0.296 10
3 0.296 10
4 0.296 10

Angle Coeffs # cosine

1 2
2 2

Atoms # full

6517 187 4 0.0000000000000000e+00 -3.8492120904350848e+01 6.0809857521607810e+01 -1.8660912225078749e+02 0 0 0
6516 187 4 0.0000000000000000e+00 -3.1900065310353376e+01 5.3475593978914709e+01 -1.8449178570956755e+02 0 0 0
6514 187 3 0.0000000000000000e+00 -2.7901164823624519e+01 3.6690617594396734e+01 -1.7577236460167634e+02 0 0 0
6513 187 4 0.0000000000000000e+00 -2.4155246507483493e+01 2.7768153597251576e+01 -1.7542933143194983e+02 0 0 0
6515 187 4 0.0000000000000000e+00 -3.0318198747827250e+01 4.5452360838927802e+01 -1.7847722492175569e+02 0 0 0
6191 177 4 0.0000000000000000e+00 -9.0569349169532785e+01 6.2324712911839455e+01 -1.7561291611464176e+02 0 0 0
6525 187 4 0.0000000000000000e+00 -6.8643068399475780e+01 5.5336883698187243e+01 -1.7423673548542433e+02 0 0 0
6524 187 4 0.0000000000000000e+00 -6.0572456768553216e+01 6.1001915344292392e+01 -1.7427217650737515e+02 0 0 0
1635 47 1 0.0000000000000000e+00 -4.3118840487062243e+01 5.9821297235646078e+01 -1.7540298275701136e+02 0 0 0
3019 87 2 0.0000000000000000e+00 -2.8951555294939986e+01 6.1555778658057200e+01 -1.7548436118418672e+02 0 0 0
3020 87 2 0.0000000000000000e+00 -2.5965762472823087e+01 5.2469117047101960e+01 -1.7195922942161891e+02 0 0 0
6328 181 4 0.0000000000000000e+00 -2.9605783641175922e+01 -2.8233920306919265e+00 -1.5873801248182673e+02 0 0 0
6327 181 4 0.0000000000000000e+00 -3.0781560286058340e+01 6.3962759125596111e+00 -1.6401493377639594e+02 0 0 0
1645 47 2 0.0000000000000000e+00 -7.5880522965883642e+01 2.1895222326441907e+01 -1.6316645441443742e+02 0 0 0
6326 181 4 0.0000000000000000e+00 -2.3717098999483682e+01 1.2088256765070829e+01 -1.5927692485449242e+02 0 0 0
1644 47 2 0.0000000000000000e+00 -6.7132779503913866e+01 2.6367873498207437e+01 -1.6020349636533618e+02 0 0 0
1643 47 2 0.0000000000000000e+00 -5.8675371491693284e+01 3.1153948947077073e+01 -1.6016033962400365e+02 0 0 0
5134 147 4 0.0000000000000000e+00 -4.3130121439953420e+01 3.4201451252642819e+01 -1.6547936678662134e+02 0 0 0
5135 147 3 0.0000000000000000e+00 -4.6551847026231002e+01 3.6891071571708700e+01 -1.5618457183634709e+02 0 0 0
5133 147 4 0.0000000000000000e+00 -3.7687061496826708e+01 2.9311680737407205e+01 -1.5907499046355389e+02 0 0 0
1535 44 2 0.0000000000000000e+00 -7.0347971756915356e+01 4.8170101618184283e+01 -1.5825718987612373e+02 0 0 0
1534 44 2 0.0000000000000000e+00 -6.3432056671679064e+01 4.7857397577159858e+01 -1.6516899611612382e+02 0 0 0
1642 47 1 0.0000000000000000e+00 -5.6683173651312977e+01 4.0624122052328332e+01 -1.5814811623262412e+02 0 0 0
1641 47 2 0.0000000000000000e+00 -5.7948714853495794e+01 5.0690209526072252e+01 -1.5744378077482392e+02 0 0 0
5437 156 4 0.0000000000000000e+00 -4.0768148036120934e+01 4.7536770573726713e+01 -1.6319211653864059e+02 0 0 0
5438 156 4 0.0000000000000000e+00 -3.4787368084220638e+01 4.0915146347084629e+01 -1.5813091037219493e+02 0 0 0
6526 187 4 0.0000000000000000e+00 -7.7911565843035248e+01 5.5749636228863530e+01 -1.6957710560043844e+02 0 0 0
6527 187 4 0.0000000000000000e+00 -8.1785761553363329e+01 5.6228496280179932e+01 -1.6022261644600565e+02 0 0 0
1533 44 2 0.0000000000000000e+00 -6.4755647453037312e+01 5.7333721916546367e+01 -1.6416415891084594e+02 0 0 0
1532 44 2 0.0000000000000000e+00 -6.9496026886214239e+01 6.4218863367551151e+01 -1.5922382823015684e+02 0 0 0
1640 47 2 0.0000000000000000e+00 -5.4868399184519298e+01 6.0535500893318812e+01 -1.5652577838870877e+02 0 0 0
5435 156 4 0.0000000000000000e+00 -5.0510998638437847e+01 6.4578924197107256e+01 -1.6645763324423473e+02 0 0 0
5436 156 3 0.0000000000000000e+00 -4.6028817764402760e+01 5.5411799685724652e+01 -1.6566666496735738e+02 0 0 0
1634 47 2 0.0000000000000000e+00 -3.6124272649927647e+01 5.6894769279927019e+01 -1.6917866056494640e+02 0 0 0
1633 47 2 0.0000000000000000e+00 -3.0330795346061880e+01 5.4946380135232431e+01 -1.6057014342841211e+02 0 0 0
1506 44 2 0.0000000000000000e+00 -1.3020193186589449e+02 -1.9843095464941310e+01 -1.4737137872461483e+02 0 0 0
6262 179 3 0.0000000000000000e+00 -5.8010169797764753e+01 7.7951886062769979e+00 -1.4788466423215579e+02 0 0 0
6329 181 4 0.0000000000000000e+00 -2.7025357677140455e+01 1.3244659856794214e-01 -1.5043430707796392e+02 0 0 0
6540 187 4 0.0000000000000000e+00 -6.0809057390395516e+01 2.3249854358023306e+01 -1.4394525285779375e+02 0 0 0
6263 179 4 0.0000000000000000e+00 -4.9526462903251236e+01 1.2670747169634016e+01 -1.5179495451294059e+02 0 0 0
6264 179 4 0.0000000000000000e+00 -4.1377114892485203e+01 1.6438969061565675e+01 -1.5539475810401365e+02 0 0 0
6265 179 4 0.0000000000000000e+00 -3.2004310982444181e+01 1.7444965540220256e+01 -1.5304370386923313e+02 0 0 0
5131 147 4 0.0000000000000000e+00 -2.7468558135568291e+01 2.2892423263045242e+01 -1.4598653309555766e+02 0 0 0
2067 60 2 0.0000000000000000e+00 -7.7773584439828809e+01 2.8863677937073462e+01 -1.4349391506761521e+02 0 0 0
2066 60 2 0.0000000000000000e+00 -7.7443284026787609e+01 2.7919135615871937e+01 -1.5357876156013617e+02 0 0 0
6539 187 4 0.0000000000000000e+00 -5.3372115553644527e+01 3.0074138437906768e+01 -1.4573468656593079e+02 0 0 0
6538 187 4 0.0000000000000000e+00 -5.8635333058543317e+01 3.8757959472409375e+01 -1.4604742619202509e+02 0 0 0
5132 147 4 0.0000000000000000e+00 -3.6068556249894357e+01 2.5920038657318074e+01 -1.4946823260274761e+02 0 0 0
1536 44 2 0.0000000000000000e+00 -7.7502857150834430e+01 4.7702707292272038e+01 -1.5115773817754561e+02 0 0 0
6537 187 4 0.0000000000000000e+00 -6.5063713397527351e+01 4.5104061771586210e+01 -1.5034651583104804e+02 0 0 0
5137 147 4 0.0000000000000000e+00 -5.3930108827700856e+01 5.0173221671479517e+01 -1.4654797042714534e+02 0 0 0
5136 147 4 0.0000000000000000e+00 -4.6732603848299888e+01 4.6684287259010119e+01 -1.5225034664417640e+02 0 0 0
5439 156 4 0.0000000000000000e+00 -2.6690049629126261e+01 4.0779982940617494e+01 -1.5290472393451276e+02 0 0 0
6528 187 3 0.0000000000000000e+00 -8.5104145579144173e+01 5.9688938884685705e+01 -1.5161503435880221e+02 0 0 0
1537 44 1 0.0000000000000000e+00 -8.0398034611922398e+01 5.3015134036357729e+01 -1.4323857061455394e+02 0 0 0
1530 44 1 0.0000000000000000e+00 -6.9772598849014869e+01 5.8891800493050482e+01 -1.4251253271540094e+02 0 0 0
1531 44 2 0.0000000000000000e+00 -7.3967263168983877e+01 6.4146178264346958e+01 -1.5009818373573285e+02 0 0 0
6536 187 4 0.0000000000000000e+00 -6.5093914370820087e+01 5.4844095804154136e+01 -1.5267368323432069e+02 0 0 0
6535 187 3 0.0000000000000000e+00 -6.2192861096714189e+01 6.4185243573084108e+01 -1.4948821182897908e+02 0 0 0
5107 146 3 0.0000000000000000e+00 -3.3031918079537583e+01 5.3836207224882450e+01 -1.4377208607028555e+02 0 0 0
1632 47 2 0.0000000000000000e+00 -2.3070754188316531e+01 5.3053927304276726e+01 -1.5424372481366004e+02 0 0 0
2100 60 2 0.0000000000000000e+00 -8.0313870406194042e+01 -5.1334691541808212e+01 -1.3135789412675894e+02 0 0 0
2099 60 2 0.0000000000000000e+00 -7.5111420369916431e+01 -4.3411313583292547e+01 -1.2953623477817840e+02 0 0 0
1507 44 2 0.0000000000000000e+00 -1.2340922594592520e+02 -1.6619019702786211e+01 -1.4074866231002238e+02 0 0 0
2095 60 2 0.0000000000000000e+00 -8.0075406557116139e+01 -2.0321986230595645e+01 -1.3468391873826295e+02 0 0 0
2096 60 2 0.0000000000000000e+00 -7.1226778478046654e+01 -2.4463715283755676e+01 -1.3510823643829960e+02 0 0 0
2097 60 1 0.0000000000000000e+00 -6.3449248307400858e+01 -2.7524922342306681e+01 -1.2944567859975183e+02 0 0 0
6258 179 4 0.0000000000000000e+00 -6.1451098524428645e+01 -1.5046218196600551e+01 -1.3187530992264604e+02 0 0 0
1509 44 1 0.0000000000000000e+00 -1.1061432952758948e+02 -3.5656889255774766e+00 -1.3597637087967772e+02 0 0 0
1508 44 2 0.0000000000000000e+00 -1.1556052477687768e+02 -1.1490055941622987e+01 -1.3944965973349386e+02 0 0 0
1510 44 2 0.0000000000000000e+00 -1.0190117629310832e+02 -1.8175570563672416e+00 -1.3147378231212878e+02 0 0 0
2085 60 2 0.0000000000000000e+00 -8.6315237054263122e+01 -6.2298692491517658e+00 -1.3431814564991029e+02 0 0 0
2094 60 2 0.0000000000000000e+00 -7.7618175040119496e+01 -1.1117267525322456e+01 -1.3215705792046140e+02 0 0 0
6259 179 4 0.0000000000000000e+00 -6.7792620016303843e+01 -1.1666996344075208e+01 -1.3861626301318276e+02 0 0 0
2093 60 2 0.0000000000000000e+00 -7.0225436083653662e+01 -5.2322300387177529e+00 -1.2904234237560752e+02 0 0 0
6260 179 4 0.0000000000000000e+00 -6.9878610202877596e+01 -2.5808269147926497e+00 -1.4151279730080708e+02 0 0 0
2091 60 2 0.0000000000000000e+00 -5.3990066944588328e+01 -2.3225957872540306e+00 -1.3755714142658366e+02 0 0 0
6545 187 4 0.0000000000000000e+00 -1.0109269505709547e+02 7.5884606176757181e+00 -1.3646099788980615e+02 0 0 0
6544 187 4 0.0000000000000000e+00 -9.1873811230341218e+01 7.8391441804883817e+00 -1.3969728686964424e+02 0 0 0
2086 60 2 0.0000000000000000e+00 -7.9138486741420436e+01 1.3944763751345596e-01 -1.3099758044673717e+02 0 0 0
6543 187 4 0.0000000000000000e+00 -8.2983851093658842e+01 1.0770482854763390e+01 -1.3533622805325200e+02 0 0 0
2092 60 2 0.0000000000000000e+00 -6.1727515919835710e+01 -9.9544756962772696e-01 -1.3061045221493518e+02 0 0 0
6261 179 4 0.0000000000000000e+00 -6.2631770622273535e+01 4.4986492226219763e+00 -1.3926638898382834e+02 0 0 0
2088 60 2 0.0000000000000000e+00 -6.2728545300899263e+01 1.0637699620033580e+01 -1.2991890554248286e+02 0 0 0
2090 60 1 0.0000000000000000e+00 -4.9173324248890928e+01 6.1239454114540344e+00 -1.4037860690548189e+02 0 0 0
6330 181 4 0.0000000000000000e+00 -2.5780258068366720e+01 -1.7148153994125545e-01 -1.4027465645537967e+02 0 0 0
385 11 2 0.0000000000000000e+00 -3.5675497495960855e+01 5.4114096675404673e+00 -1.2976170869950175e+02 0 0 0
2828 81 2 0.0000000000000000e+00 -2.7100518254759837e+01 1.1742348529290158e+01 -1.3574232108040391e+02 0 0 0
1749 50 2 0.0000000000000000e+00 -1.0925197990977806e+02 2.4767803843233374e+01 -1.3099916689529115e+02 0 0 0
2068 60 2 0.0000000000000000e+00 -8.1230395963647453e+01 2.4597245019014132e+01 -1.3559685735383337e+02 0 0 0
6542 187 3 0.0000000000000000e+00 -7.3925553264852709e+01 1.4168790100957006e+01 -1.3299886349305029e+02 0 0 0
6541 187 4 0.0000000000000000e+00 -6.7024459155241630e+01 1.6253759786319339e+01 -1.4082486496685158e+02 0 0 0
2089 60 2 0.0000000000000000e+00 -5.4524789371260511e+01 1.2271899520754522e+01 -1.3526244365308739e+02 0 0 0
2831 81 2 0.0000000000000000e+00 -5.2933638177898082e+01 2.3940593031249620e+01 -1.3741957756578347e+02 0 0 0
2830 81 2 0.0000000000000000e+00 -4.4948016332855957e+01 1.8587888920702795e+01 -1.3997955839279487e+02 0 0 0
2829 81 2 0.0000000000000000e+00 -3.5857874781980563e+01 1.4191541436217733e+01 -1.3928140712152322e+02 0 0 0
6499 186 4 0.0000000000000000e+00 -1.0798027130333948e+02 3.7183363914430764e+01 -1.3105772571452454e+02 0 0 0
1750 50 2 0.0000000000000000e+00 -1.0095465351391377e+02 2.5778028118405697e+01 -1.3682508235992401e+02 0 0 0
5536 159 4 0.0000000000000000e+00 -8.6315090745486415e+01 3.6392049679035146e+01 -1.3034501054560695e+02 0 0 0
2833 81 2 0.0000000000000000e+00 -6.2782078941294849e+01 3.6975695163146327e+01 -1.3540323914222881e+02 0 0 0
2832 81 1 0.0000000000000000e+00 -6.1055409377648616e+01 2.8037391365692450e+01 -1.3257879781891887e+02 0 0 0
1527 44 2 0.0000000000000000e+00 -5.2165014378914698e+01 3.6561824505261548e+01 -1.3377988109858131e+02 0 0 0
1526 44 2 0.0000000000000000e+00 -5.1208897248829921e+01 2.8826021818087771e+01 -1.2886739518103610e+02 0 0 0
5903 169 4 0.0000000000000000e+00 -1.0667732090472383e+02 4.9347437435672575e+01 -1.3080844740938494e+02 0 0 0
6500 186 3 0.0000000000000000e+00 -1.1754543771180674e+02 4.0152550027554092e+01 -1.3087754729505821e+02 0 0 0
5904 169 4 0.0000000000000000e+00 -1.0142302620712861e+02 4.6376534809524117e+01 -1.3907459652185298e+02 0 0 0
5905 169 3 0.0000000000000000e+00 -9.2219876871057792e+01 4.6942049361195060e+01 -1.3769359671793092e+02 0 0 0
5906 169 4 0.0000000000000000e+00 -8.6779697268563282e+01 4.7204835409546675e+01 -1.2902970783359302e+02 0 0 0
2834 81 2 0.0000000000000000e+00 -7.1278773744775378e+01 4.1727088105953449e+01 -1.3472472708453961e+02 0 0 0
1528 44 2 0.0000000000000000e+00 -5.5841140136596827e+01 4.5057625604122094e+01 -1.3744090545312085e+02 0 0 0
5106 146 4 0.0000000000000000e+00 -2.4177623555291188e+01 4.9758072937794850e+01 -1.4139634097517839e+02 0 0 0
3197 92 2 0.0000000000000000e+00 -1.0530194316183605e+02 6.0430089899842812e+01 -1.4230979720296071e+02 0 0 0
3198 92 2 0.0000000000000000e+00 -1.0897528242602694e+02 5.9741519156935148e+01 -1.3338416503805266e+02 0 0 0
3196 92 1 0.0000000000000000e+00 -9.6399117562095043e+01 5.7538422285264645e+01 -1.3839879098473355e+02 0 0 0
3195 92 2 0.0000000000000000e+00 -9.7456871710523004e+01 5.5956846521515857e+01 -1.2875107570671881e+02 0 0 0
1538 44 2 0.0000000000000000e+00 -8.2073270248056474e+01 5.9929550367850567e+01 -1.3591055524442521e+02 0 0 0
1539 44 2 0.0000000000000000e+00 -9.0919259565875151e+01 6.5464506597120007e+01 -1.3442292504462617e+02 0 0 0
1529 44 2 0.0000000000000000e+00 -6.2659756910048444e+01 5.2490225871856531e+01 -1.3818886364771058e+02 0 0 0
5138 147 4 0.0000000000000000e+00 -5.1700885877701303e+01 5.5043622599308215e+01 -1.3828600995079981e+02 0 0 0
5139 147 4 0.0000000000000000e+00 -5.4926666282879644e+01 6.0280993910101522e+01 -1.3032447604225388e+02 0 0 0
5108 146 4 0.0000000000000000e+00 -4.1669373274332408e+01 5.5470109666278134e+01 -1.3857795242710134e+02 0 0 0
5109 146 4 0.0000000000000000e+00 -4.5822986159800294e+01 6.2592922652681651e+01 -1.3301920504439175e+02 0 0 0
1775 51 1 0.0000000000000000e+00 -2.9054074234292944e+01 5.8864071136488505e+01 -1.3422436243120745e+02 0 0 0
2080 60 2 0.0000000000000000e+00 -7.1438617663796478e+01 -4.2182863330720551e+01 -1.1516531321844342e+02 0 0 0
4729 136 3 0.0000000000000000e+00 -3.5823996261461069e+01 -4.5065097419710789e+01 -1.1574941396048291e+02 0 0 0
2098 60 2 0.0000000000000000e+00 -6.9215988484052517e+01 -3.5433953764215616e+01 -1.2837061199181406e+02 0 0 0
4726 136 4 0.0000000000000000e+00 -6.1278496265225613e+01 -3.3023031649550646e+01 -1.1866205946958456e+02 0 0 0
4727 136 4 0.0000000000000000e+00 -5.1612564582397944e+01 -3.3317954703248297e+01 -1.1893431679447728e+02 0 0 0
4728 136 4 0.0000000000000000e+00 -4.3487085089048961e+01 -3.9577930154780717e+01 -1.1943924625846944e+02 0 0 0
2804 81 1 0.0000000000000000e+00 -3.4687146762540316e+01 -3.4408065811290363e+01 -1.1504361388587631e+02 0 0 0
2083 60 1 0.0000000000000000e+00 -7.6922293326756446e+01 -1.7782592778006006e+01 -1.2513588442778986e+02 0 0 0
2082 60 2 0.0000000000000000e+00 -7.1997838768256130e+01 -2.5735489323134605e+01 -1.2081429116633069e+02 0 0 0
2806 81 2 0.0000000000000000e+00 -4.4257826626181959e+01 -1.8883124736735972e+01 -1.2150691900364772e+02 0 0 0
2805 81 2 0.0000000000000000e+00 -4.0593864661774518e+01 -2.6505519016091018e+01 -1.1660033476994479e+02 0 0 0
3677 106 4 0.0000000000000000e+00 -3.2757450240536620e+01 -1.9561986565330503e+01 -1.1538216795422809e+02 0 0 0
3676 106 4 0.0000000000000000e+00 -2.8590806168473705e+01 -1.8067668067247929e+01 -1.2436286949772672e+02 0 0 0
5542 159 4 0.0000000000000000e+00 -1.1567635156932394e+02 -7.4914216215612335e+00 -1.2058240515968309e+02 0 0 0
2084 60 2 0.0000000000000000e+00 -8.5808048505976728e+01 -1.2747502046959243e+01 -1.2632530291822627e+02 0 0 0
2072 60 2 0.0000000000000000e+00 -8.3733843012748935e+01 -7.5999216897552957e+00 -1.1566553336081306e+02 0 0 0
6255 179 3 0.0000000000000000e+00 -7.3639440118923204e+01 -1.4484782642385870e+01 -1.1506889069004446e+02 0 0 0
6257 179 4 0.0000000000000000e+00 -6.0314169644333909e+01 -1.1492419761886060e+01 -1.2301899319990979e+02 0 0 0
2807 81 2 0.0000000000000000e+00 -4.6278668372035909e+01 -9.7665433367449275e+00 -1.2138641203076261e+02 0 0 0
6333 181 4 0.0000000000000000e+00 -2.4774266538891126e+01 -4.0260700070454236e+00 -1.1658766971248474e+02 0 0 0
6332 181 3 0.0000000000000000e+00 -2.5105063849486569e+01 -2.6867076670345744e+00 -1.2630710192872721e+02 0 0 0
5541 159 3 0.0000000000000000e+00 -1.1462838582555931e+02 1.8489108551687777e-01 -1.2657368980725263e+02 0 0 0
5540 159 4 0.0000000000000000e+00 -1.1089277422158828e+02 8.8931876590270900e+00 -1.2412017973697677e+02 0 0 0
1511 44 2 0.0000000000000000e+00 -9.4078764615271140e+01 -1.3233083829897216e+00 -1.2559260874061545e+02 0 0 0
1512 44 2 0.0000000000000000e+00 -9.4864330815151746e+01 3.6675909742895643e+00 -1.1673545365259912e+02 0 0 0
2071 60 2 0.0000000000000000e+00 -8.1272586694509840e+01 5.1267150010375862e-01 -1.1981698419975415e+02 0 0 0
2070 60 2 0.0000000000000000e+00 -8.1461542805995819e+01 9.6404293859844792e+00 -1.2319748651521438e+02 0 0 0
2087 60 2 0.0000000000000000e+00 -7.0912018867710941e+01 5.8065667533732270e+00 -1.2757558299197706e+02 0 0 0
5532 159 4 0.0000000000000000e+00 -6.7379890732246409e+01 9.8329193821730971e+00 -1.1721677333709188e+02 0 0 0
5123 147 4 0.0000000000000000e+00 -5.9968580219165418e+01 3.0720404389481487e-01 -1.1977755281426568e+02 0 0 0
5124 147 4 0.0000000000000000e+00 -5.4603571439763165e+01 4.3999360498125117e+00 -1.2655780690510436e+02 0 0 0
2808 81 2 0.0000000000000000e+00 -4.7501532765122001e+01 -9.4246076636803211e-01 -1.1739925442624300e+02 0 0 0
384 11 2 0.0000000000000000e+00 -3.9585653927736388e+01 9.3599333698078144e+00 -1.2176240129087589e+02 0 0 0
2809 81 2 0.0000000000000000e+00 -3.7303802473173072e+01 -4.5291557875350591e-01 -1.1955164587965558e+02 0 0 0
5125 147 4 0.0000000000000000e+00 -4.7385651022399287e+01 1.0723089353390895e+01 -1.2854756825889703e+02 0 0 0
2810 81 2 0.0000000000000000e+00 -2.9891683467610488e+01 6.3500528372495886e+00 -1.2037281859078384e+02 0 0 0
5539 159 4 0.0000000000000000e+00 -1.0595918970434420e+02 1.8084800691513209e+01 -1.2418918444770358e+02 0 0 0
2069 60 1 0.0000000000000000e+00 -8.1641360030706977e+01 1.9089978386486575e+01 -1.2704830567704197e+02 0 0 0
5533 159 4 0.0000000000000000e+00 -6.7429738111635203e+01 1.9398499618659820e+01 -1.2118892678090914e+02 0 0 0
1525 44 2 0.0000000000000000e+00 -5.5145389514832409e+01 2.3522193481077011e+01 -1.2174924357339340e+02 0 0 0
5126 147 4 0.0000000000000000e+00 -4.2176744890005430e+01 1.9125042661048237e+01 -1.2811808762990725e+02 0 0 0
5128 147 3 0.0000000000000000e+00 -2.5891673617366500e+01 2.5348884169022604e+01 -1.1926685825732518e+02 0 0 0
5127 147 4 0.0000000000000000e+00 -3.4432687671068450e+01 2.4378437027071545e+01 -1.2420225556702985e+02 0 0 0
1748 50 2 0.0000000000000000e+00 -1.1314248351604586e+02 3.1194080576836441e+01 -1.2390974861569624e+02 0 0 0
1747 50 1 0.0000000000000000e+00 -1.1267831290356145e+02 3.7371190439290110e+01 -1.1620563216740814e+02 0 0 0
5537 159 4 0.0000000000000000e+00 -9.5092312437238220e+01 3.5043504765826036e+01 -1.2534836685518374e+02 0 0 0
5538 159 4 0.0000000000000000e+00 -1.0202355733572601e+02 2.7414899426832076e+01 -1.2358129808076473e+02 0 0 0
5535 159 4 0.0000000000000000e+00 -7.7880404601848724e+01 3.2134282770691826e+01 -1.2794705329145616e+02 0 0 0
6300 180 4 0.0000000000000000e+00 -8.8005808494962650e+01 2.5886931517390039e+01 -1.2257991405002490e+02 0 0 0
5534 159 3 0.0000000000000000e+00 -6.8892446977158301e+01 2.8340434507548068e+01 -1.2501285498946588e+02 0 0 0
3189 92 1 0.0000000000000000e+00 -6.0966058186199184e+01 3.8469025615601453e+01 -1.1928131290851965e+02 0 0 0
6501 186 4 0.0000000000000000e+00 -1.2260652716854003e+02 4.5816331898562261e+01 -1.2423765235285889e+02 0 0 0
5902 169 4 0.0000000000000000e+00 -1.0779797946280665e+02 4.9066094238337037e+01 -1.2099049366667161e+02 0 0 0
6498 186 4 0.0000000000000000e+00 -1.0441977626719128e+02 3.9580570778861308e+01 -1.2198576820343943e+02 0 0 0
6497 186 4 0.0000000000000000e+00 -9.5706471266346242e+01 4.4249833648882415e+01 -1.1980578961587902e+02 0 0 0
5907 169 4 0.0000000000000000e+00 -8.0292967201294999e+01 4.1237296646407451e+01 -1.2399749593958383e+02 0 0 0
5908 169 4 0.0000000000000000e+00 -8.1749033730372588e+01 3.9612754073368961e+01 -1.1493795130251820e+02 0 0 0
2835 81 2 0.0000000000000000e+00 -7.5420711811177881e+01 4.8188636404529980e+01 -1.2842840537182900e+02 0 0 0
3190 92 2 0.0000000000000000e+00 -7.0302501194929334e+01 4.2783618772673698e+01 -1.2079238795577744e+02 0 0 0
3188 92 2 0.0000000000000000e+00 -5.2805349513110258e+01 4.3680980034659399e+01 -1.2089302499400794e+02 0 0 0
1776 51 2 0.0000000000000000e+00 -2.6948128156570519e+01 5.2319487102897327e+01 -1.2720427276696893e+02 0 0 0
6502 186 4 0.0000000000000000e+00 -1.2304479850545778e+02 5.3144796028583997e+01 -1.1754026418778282e+02 0 0 0
6503 186 4 0.0000000000000000e+00 -1.2568261903103455e+02 6.2590762455404246e+01 -1.1866136701727154e+02 0 0 0
3199 92 2 0.0000000000000000e+00 -1.1630490211335412e+02 6.1397794556635773e+01 -1.2695571052565184e+02 0 0 0
3194 92 2 0.0000000000000000e+00 -9.8326049672832951e+01 5.6231976996377817e+01 -1.1869066936313023e+02 0 0 0
2500 72 2 0.0000000000000000e+00 -6.5250995461981276e+01 6.4496345606375556e+01 -1.2713204383768792e+02 0 0 0
2499 72 2 0.0000000000000000e+00 -6.0423696154577016e+01 6.0012333636898340e+01 -1.1943251777318616e+02 0 0 0
3187 92 2 0.0000000000000000e+00 -5.0438357995973917e+01 5.2442142926102811e+01 -1.2541016159470709e+02 0 0 0
3186 92 2 0.0000000000000000e+00 -4.1255695492340756e+01 5.5244714336549009e+01 -1.2547480725467764e+02 0 0 0
5339 153 4 0.0000000000000000e+00 -3.2163598702847160e+01 5.3825323915180917e+01 -1.1634657098397797e+02 0 0 0
2079 60 2 0.0000000000000000e+00 -7.6783852096759404e+01 -4.3273067951852333e+01 -1.0659649912341965e+02 0 0 0
257 8 2 0.0000000000000000e+00 -3.9222399540136237e+01 -4.5160305762871154e+01 -1.0233326389242663e+02 0 0 0
4730 136 4 0.0000000000000000e+00 -2.6559111825880237e+01 -4.3646040495102660e+01 -1.1314366583493860e+02 0 0 0
2081 60 2 0.0000000000000000e+00 -7.0962734469957681e+01 -3.2698268291807700e+01 -1.1312711602729722e+02 0 0 0
254 8 2 0.0000000000000000e+00 -6.0495219655927301e+01 -3.8812439703663898e+01 -1.0508793389055265e+02 0 0 0
255 8 2 0.0000000000000000e+00 -5.3603447467449882e+01 -4.0173398123388175e+01 -1.1144312835463607e+02 0 0 0
256 8 1 0.0000000000000000e+00 -4.4105138314638090e+01 -3.8902032613231732e+01 -1.0859091856861852e+02 0 0 0
3679 106 3 0.0000000000000000e+00 -3.8917138765858525e+01 -3.1488969171348543e+01 -1.0256349177071249e+02 0 0 0
2803 81 2 0.0000000000000000e+00 -2.6622785595970832e+01 -3.1411583916381129e+01 -1.0896236043952901e+02 0 0 0
6254 179 4 0.0000000000000000e+00 -8.0765532090253956e+01 -1.9706896423103988e+01 -1.1085917619953406e+02 0 0 0
6253 179 4 0.0000000000000000e+00 -8.5108819056676609e+01 -2.4622944981695568e+01 -1.0311476637613048e+02 0 0 0
802 23 1 0.0000000000000000e+00 -6.0383352711639468e+01 -1.7912162556481299e+01 -1.0475828390576440e+02 0 0 0
3678 106 4 0.0000000000000000e+00 -3.3843243685996768e+01 -2.4035207909213391e+01 -1.0658302138849579e+02 0 0 0
2802 81 2 0.0000000000000000e+00 -2.3140080066137916e+01 -2.3236537925663509e+01 -1.0497221001874458e+02 0 0 0
5543 159 4 0.0000000000000000e+00 -1.1382791752436964e+02 -6.8368180085863592e+00 -1.1061770313579076e+02 0 0 0
5544 159 4 0.0000000000000000e+00 -1.0527081016745180e+02 -7.4609517285891895e+00 -1.0472836306975911e+02 0 0 0
2073 60 2 0.0000000000000000e+00 -8.8773673692698168e+01 -1.2487476073652568e+01 -1.0837792471873757e+02 0 0 0
6256 179 4 0.0000000000000000e+00 -6.4862884348935680e+01 -1.0777369539534892e+01 -1.1452703083113512e+02 0 0 0
5121 147 3 0.0000000000000000e+00 -5.1560538241249319e+01 -1.2692936473224705e+01 -1.0862989762252488e+02 0 0 0
5122 147 4 0.0000000000000000e+00 -5.6057816170648593e+01 -4.3395013268856353e+00 -1.1200915584752642e+02 0 0 0
5120 147 4 0.0000000000000000e+00 -4.3937223003686441e+01 -7.9542291110652839e+00 -1.0253971921442105e+02 0 0 0
6334 181 4 0.0000000000000000e+00 -2.9527367350803605e+01 -7.0117822109295567e+00 -1.0782105377802168e+02 0 0 0
3742 107 3 0.0000000000000000e+00 -1.3616864636883594e+02 5.2700363023972860e+00 -1.0598639451059910e+02 0 0 0
3743 107 4 0.0000000000000000e+00 -1.4460423364035316e+02 9.7657753542096568e+00 -1.0727317376770092e+02 0 0 0
1513 44 2 0.0000000000000000e+00 -1.0056602212071742e+02 1.7003486350643782e+00 -1.0823206530044354e+02 0 0 0
5531 159 4 0.0000000000000000e+00 -6.3375114312492478e+01 4.4153175534626046e+00 -1.0997767757390450e+02 0 0 0
5119 147 4 0.0000000000000000e+00 -4.6690886830460300e+01 3.6666501330618612e-01 -1.0632845165870441e+02 0 0 0
5118 147 4 0.0000000000000000e+00 -4.4007818350864021e+01 8.7910122875268399e+00 -1.1037452359639167e+02 0 0 0
6335 181 4 0.0000000000000000e+00 -3.5354244965118575e+01 1.6350547187414970e+00 -1.0694385509370719e+02 0 0 0
3744 107 4 0.0000000000000000e+00 -1.4996063782606697e+02 1.7706891881848080e+01 -1.0946172306302047e+02 0 0 0
2546 73 2 0.0000000000000000e+00 -1.3691202197979450e+02 1.7432627194479227e+01 -1.0189836850737601e+02 0 0 0
2547 73 2 0.0000000000000000e+00 -1.4243189210017738e+02 2.4273341803888833e+01 -1.0554692253542245e+02 0 0 0
2545 73 1 0.0000000000000000e+00 -1.2848579391349762e+02 1.1996183435385326e+01 -1.0166226376902686e+02 0 0 0
4444 127 4 0.0000000000000000e+00 -1.0732334383521255e+02 1.8846910112211251e+01 -1.0682423675097584e+02 0 0 0
4445 127 4 0.0000000000000000e+00 -9.9202407559310231e+01 1.3695844729221218e+01 -1.0557067295477734e+02 0 0 0
5111 147 4 0.0000000000000000e+00 -9.1455725301624284e+01 1.9921646722482517e+01 -1.0411065709272543e+02 0 0 0
5112 147 4 0.0000000000000000e+00 -8.1963302286133512e+01 2.2684676569369625e+01 -1.0796323272171520e+02 0 0 0
1523 44 1 0.0000000000000000e+00 -6.4443494822938064e+01 1.8968073360115859e+01 -1.0570206288880979e+02 0 0 0
5113 147 4 0.0000000000000000e+00 -7.2872115969099582e+01 2.4740721012845928e+01 -1.1034413602367749e+02 0 0 0
1524 44 2 0.0000000000000000e+00 -5.8883215817534925e+01 2.1276511442520395e+01 -1.1298099759659857e+02 0 0 0
5117 147 4 0.0000000000000000e+00 -4.5850066457579253e+01 1.8436727079227467e+01 -1.1242927121609624e+02 0 0 0
5333 153 4 0.0000000000000000e+00 -3.8173011579630376e+01 1.7306784723416484e+01 -1.0339074690166811e+02 0 0 0
383 11 2 0.0000000000000000e+00 -3.3967903029817514e+01 1.3625776358772200e+01 -1.1440028970666188e+02 0 0 0
382 11 1 0.0000000000000000e+00 -2.8107320004835657e+01 1.9878470073079836e+01 -1.0965959112899756e+02 0 0 0
3745 107 4 0.0000000000000000e+00 -1.5290729970170040e+02 2.6470298916679070e+01 -1.0604896992457196e+02 0 0 0
2548 73 2 0.0000000000000000e+00 -1.4298972228272288e+02 3.4380529105174993e+01 -1.0339919001183488e+02 0 0 0
4443 127 4 0.0000000000000000e+00 -1.1319597989848381e+02 2.7126484510462127e+01 -1.0491436016421234e+02 0 0 0
6297 180 3 0.0000000000000000e+00 -1.0889562649968691e+02 3.7761258292959191e+01 -1.0568127006176080e+02 0 0 0
6296 180 4 0.0000000000000000e+00 -1.1812994265804072e+02 3.7571539833941067e+01 -1.0220001589463662e+02 0 0 0
6299 180 4 0.0000000000000000e+00 -9.3764033551268028e+01 2.7231345848205734e+01 -1.1432612313734215e+02 0 0 0
6298 180 4 0.0000000000000000e+00 -1.0045836869361689e+02 3.2940904404925810e+01 -1.0896398468852991e+02 0 0 0
5909 169 4 0.0000000000000000e+00 -8.4470845345667769e+01 3.6309795570987482e+01 -1.0543921052904398e+02 0 0 0
5114 147 3 0.0000000000000000e+00 -6.6633105963323843e+01 3.1220621736771118e+01 -1.1378094450406508e+02 0 0 0
6240 179 4 0.0000000000000000e+00 -6.4458396229048560e+01 3.2533101950175833e+01 -1.0350183824413101e+02 0 0 0
5115 147 4 0.0000000000000000e+00 -5.6948598592680383e+01 3.2430735298357384e+01 -1.1257793692770053e+02 0 0 0
5116 147 4 0.0000000000000000e+00 -4.8583096331066102e+01 2.7497398720902449e+01 -1.1460260227674873e+02 0 0 0
5335 153 4 0.0000000000000000e+00 -4.7852128595773827e+01 3.3617904384799154e+01 -1.0626354399405402e+02 0 0 0
5334 153 4 0.0000000000000000e+00 -4.1256195328762225e+01 2.6626773103328031e+01 -1.0650866562177420e+02 0 0 0
1745 50 2 0.0000000000000000e+00 -1.2323589055055143e+02 5.0767961037366824e+01 -1.0671908914929834e+02 0 0 0
1746 50 2 0.0000000000000000e+00 -1.1691607905651469e+02 4.5549366835038988e+01 -1.1245803148741471e+02 0 0 0
5901 169 4 0.0000000000000000e+00 -1.0506597352624624e+02 4.9444211004015976e+01 -1.1169664935067270e+02 0 0 0
6496 186 4 0.0000000000000000e+00 -9.3246798113817050e+01 4.2449520614402957e+01 -1.1029396472251312e+02 0 0 0
3191 92 2 0.0000000000000000e+00 -7.5866975840748680e+01 4.8446087598914751e+01 -1.1440918216409987e+02 0 0 0
6239 179 4 0.0000000000000000e+00 -6.5411882489295280e+01 4.1038244305706918e+01 -1.0824956457225311e+02 0 0 0
6238 179 4 0.0000000000000000e+00 -6.2621292089853270e+01 4.9032097622468754e+01 -1.1349442450378028e+02 0 0 0
5336 153 4 0.0000000000000000e+00 -5.2118544199051456e+01 4.2583335673018333e+01 -1.0705063239153168e+02 0 0 0
5337 153 4 0.0000000000000000e+00 -4.8475206823593211e+01 5.2249141919334242e+01 -1.0898380563705204e+02 0 0 0
6293 180 4 0.0000000000000000e+00 -1.3348982726876287e+02 5.9524146773028960e+01 -1.0303172683596246e+02 0 0 0
1744 50 2 0.0000000000000000e+00 -1.2188047418393410e+02 6.1037762642766396e+01 -1.0561143048635263e+02 0 0 0
6231 179 4 0.0000000000000000e+00 -1.0898701058522833e+02 6.5285419055842894e+01 -1.1381044881882917e+02 0 0 0
1742 50 2 0.0000000000000000e+00 -1.0750239488411066e+02 6.4119509851545658e+01 -1.0417980294535872e+02 0 0 0
5900 169 4 0.0000000000000000e+00 -1.0142080014014616e+02 5.4927070881073583e+01 -1.0423855667100115e+02 0 0 0
3193 92 2 0.0000000000000000e+00 -9.1731520395593094e+01 5.9998664382838115e+01 -1.1161370350908471e+02 0 0 0