LAMMPS data file via write_data, version 5 Jun 2019, timestep = 500000000

7000 atoms
4 atom types
7277 bonds
3 bond types
6600 angles
2 angle types

-5.0000000000000000e+02 5.0000000000000000e+02 xlo xhi
-5.0000000000000000e+02 5.0000000000000000e+02 ylo yhi
-5.0000000000000000e+02 5.0000000000000000e+02 zlo zhi

Masses

1 1000
2 1000
3 1000
4 1000

Pair Coeffs # lj/cut

1 0.296 10
2 0.296 10
3 0.296 10
4 0.296 10

Angle Coeffs # cosine

1 2
2 2

Atoms # full

3395 97 2 0.0000000000000000e+00 -4.7235308384451791e+01 -5.4375350797414981e+01 -1.6428548994636472e+02 0 0 0
3393 97 2 0.0000000000000000e+00 -3.5725500593401101e+01 -5.5603345123017718e+01 -1.5187745361878476e+02 0 0 0
2086 60 2 0.0000000000000000e+00 -6.1534339260175088e+01 -4.5709994895032537e+01 -1.4716620134786822e+02 0 0 0
3394 97 2 0.0000000000000000e+00 -4.1984435708943153e+01 -4.9686263313259623e+01 -1.5800460268405064e+02 0 0 0
2088 60 2 0.0000000000000000e+00 -7.0384358677797849e+01 -5.4977625580396783e+01 -1.3325875804002260e+02 0 0 0
2087 60 2 0.0000000000000000e+00 -6.5907547561388668e+01 -5.2095679606074746e+01 -1.4146820679270718e+02 0 0 0
6314 181 4 0.0000000000000000e+00 -4.7906591739108997e+01 -5.1753613451626826e+01 -1.3357159936112615e+02 0 0 0
6313 181 4 0.0000000000000000e+00 -4.0179873319188857e+01 -4.6176793518861736e+01 -1.3809542446768626e+02 0 0 0
2084 60 2 0.0000000000000000e+00 -6.6836521950968447e+01 -3.3250329108707760e+01 -1.3592177631892312e+02 0 0 0
2085 60 2 0.0000000000000000e+00 -6.0212529183226764e+01 -3.8011096467000115e+01 -1.4081341604381916e+02 0 0 0
2083 60 1 0.0000000000000000e+00 -7.2056284246847866e+01 -2.4656086748707160e+01 -1.3323109197455503e+02 0 0 0
5087 146 4 0.0000000000000000e+00 -6.1955449629125418e+01 -2.2812418474858031e+01 -1.3810032187194821e+02 0 0 0
5088 146 4 0.0000000000000000e+00 -5.4602938333335757e+01 -2.0679308389066936e+01 -1.4499420775735075e+02 0 0 0
5089 146 4 0.0000000000000000e+00 -4.5143368738455280e+01 -1.8576016808526390e+01 -1.4219964251165584e+02 0 0 0
5090 146 4 0.0000000000000000e+00 -3.9196254943843236e+01 -2.1455930049472705e+01 -1.3509648276142980e+02 0 0 0
6195 177 4 0.0000000000000000e+00 -1.7352576393070728e+02 -4.7169659467455443e+00 -1.3441350050905149e+02 0 0 0
1628 47 1 0.0000000000000000e+00 -5.7999825913171620e+01 -1.0552940823408484e+01 -1.3302562752078074e+02 0 0 0
1629 47 2 0.0000000000000000e+00 -6.0668651429892464e+01 -2.8054894502742913e+00 -1.3859564328557926e+02 0 0 0
5145 147 4 0.0000000000000000e+00 -4.8316668746707904e+01 -3.5199371368276315e+00 -1.3616348478869023e+02 0 0 0
1630 47 2 0.0000000000000000e+00 -6.4755211721884379e+01 6.1309740605212895e+00 -1.4219350326158914e+02 0 0 0
630 18 2 0.0000000000000000e+00 -5.5491904229896207e+01 9.5700476309611204e+00 -1.3540770991089934e+02 0 0 0
4901 141 4 0.0000000000000000e+00 -9.6428356520901502e+01 2.3006978557086956e+01 -1.3944999319329347e+02 0 0 0
483 14 2 0.0000000000000000e+00 -8.1731602211724265e+01 2.6880622009780893e+01 -1.3843250215987504e+02 0 0 0
1631 47 2 0.0000000000000000e+00 -6.9712093761136046e+01 1.4032643334363673e+01 -1.3794392979005315e+02 0 0 0
484 14 2 0.0000000000000000e+00 -7.3175428125829228e+01 2.6177227718791013e+01 -1.3408002951812327e+02 0 0 0
4903 141 4 0.0000000000000000e+00 -1.0770282225477712e+02 3.9329397333497212e+01 -1.3869026866589422e+02 0 0 0
4902 141 4 0.0000000000000000e+00 -1.0153297490281513e+02 3.1926318988397512e+01 -1.3883916226566402e+02 0 0 0
481 14 2 0.0000000000000000e+00 -9.4933986590461515e+01 3.9234845454945486e+01 -1.4542903051403988e+02 0 0 0
482 14 2 0.0000000000000000e+00 -8.9068016441519077e+01 3.2764968591677466e+01 -1.4089438387273103e+02 0 0 0
489 14 2 0.0000000000000000e+00 -3.8382242710816087e+01 3.8755493175094827e+01 -1.3549987738431116e+02 0 0 0
6241 179 3 0.0000000000000000e+00 -7.5834287350613209e+01 -7.4696479248819088e+01 -1.2439833363626717e+02 0 0 0
6240 179 4 0.0000000000000000e+00 -6.7426116866476264e+01 -7.0266764196460969e+01 -1.2248904985308967e+02 0 0 0
6316 181 4 0.0000000000000000e+00 -5.4252172370416638e+01 -6.7890007620662828e+01 -1.2475499087322322e+02 0 0 0
2089 60 2 0.0000000000000000e+00 -7.2386849109612911e+01 -6.0271983679312861e+01 -1.2521704932543828e+02 0 0 0
6239 179 4 0.0000000000000000e+00 -6.2551426032413453e+01 -6.1620360757109459e+01 -1.2298684671692753e+02 0 0 0
6315 181 4 0.0000000000000000e+00 -5.2352593016723219e+01 -5.9709011490259989e+01 -1.3001086173191510e+02 0 0 0
3389 97 2 0.0000000000000000e+00 -5.1131139514971188e+01 -5.5147838434989552e+01 -1.2163832001572707e+02 0 0 0
3390 97 2 0.0000000000000000e+00 -4.1832009965077027e+01 -5.4798155696027088e+01 -1.2530109797520288e+02 0 0 0
3391 97 2 0.0000000000000000e+00 -3.4999289116155580e+01 -5.7337037432018150e+01 -1.3222695515321814e+02 0 0 0
701 21 2 0.0000000000000000e+00 -7.4901835958176065e+01 -4.2833798935273371e+01 -1.2115519601993408e+02 0 0 0
6238 179 4 0.0000000000000000e+00 -6.2116616875632793e+01 -5.1759968678198042e+01 -1.2631117905377590e+02 0 0 0
6237 179 4 0.0000000000000000e+00 -6.0540792894579759e+01 -4.2306062736340841e+01 -1.2893950122414424e+02 0 0 0
2080 60 2 0.0000000000000000e+00 -8.3954474676317432e+01 -2.8293249522770200e+01 -1.2518994262435304e+02 0 0 0
6236 179 4 0.0000000000000000e+00 -5.6243898600138991e+01 -3.4048355609827368e+01 -1.3278001750162269e+02 0 0 0
6235 179 4 0.0000000000000000e+00 -5.5850592861780044e+01 -3.3483637737228015e+01 -1.2308639680789493e+02 0 0 0
5091 146 4 0.0000000000000000e+00 -4.1181177875162220e+01 -3.0215530374826844e+01 -1.3246924721995393e+02 0 0 0
5092 146 4 0.0000000000000000e+00 -3.5117156991466040e+01 -3.4924530815978052e+01 -1.2610866401596732e+02 0 0 0
2082 60 2 0.0000000000000000e+00 -7.9562093073625121e+01 -1.9217247344793680e+01 -1.2998486282762875e+02 0 0 0
2081 60 2 0.0000000000000000e+00 -8.9143823786155693e+01 -1.9999272644371068e+01 -1.2774759078082677e+02 0 0 0
5085 146 4 0.0000000000000000e+00 -6.5229032218334154e+01 -1.8563483342416344e+01 -1.2021623447455299e+02 0 0 0
5086 146 3 0.0000000000000000e+00 -6.1914193289245411e+01 -2.3597295272336559e+01 -1.2816007667571358e+02 0 0 0
1627 47 2 0.0000000000000000e+00 -5.1671756681378952e+01 -1.7734943529438194e+01 -1.3151150066257193e+02 0 0 0
1626 47 2 0.0000000000000000e+00 -4.8569771309589989e+01 -2.3572817804995573e+01 -1.2354463962960675e+02 0 0 0
5100 146 3 0.0000000000000000e+00 -3.6779118884356798e+01 -2.1589224604025716e+01 -1.2153862486132138e+02 0 0 0
5101 146 4 0.0000000000000000e+00 -3.6573897457795276e+01 -1.3340057387648795e+01 -1.2713328623401827e+02 0 0 0
6194 177 4 0.0000000000000000e+00 -1.6910568257748261e+02 7.4921458318948336e-02 -1.2691912928922174e+02 0 0 0
5352 153 3 0.0000000000000000e+00 -1.0534224724052062e+02 -5.5902416666006900e+00 -1.1985045295461168e+02 0 0 0
5350 153 4 0.0000000000000000e+00 -8.5590829881233148e+01 -1.6638899925384030e+00 -1.2084944953329689e+02 0 0 0
628 18 2 0.0000000000000000e+00 -5.6026860271798050e+01 -6.9347661592915266e-01 -1.2233646863283764e+02 0 0 0
5102 146 4 0.0000000000000000e+00 -4.1919614109109958e+01 -5.0509715073844133e+00 -1.2671114539574828e+02 0 0 0
6193 177 4 0.0000000000000000e+00 -1.6311892426209570e+02 6.8431387088989197e+00 -1.3095241538389635e+02 0 0 0
3455 99 1 0.0000000000000000e+00 -1.6802157871622393e+02 1.2654906677301042e+01 -1.1989395072530370e+02 0 0 0
6192 177 3 0.0000000000000000e+00 -1.5797059165778896e+02 1.3112094649958166e+01 -1.2573462287109967e+02 0 0 0
629 18 2 0.0000000000000000e+00 -6.0994670915791339e+01 3.9829022301650578e+00 -1.2938771572752063e+02 0 0 0
5345 153 3 0.0000000000000000e+00 -5.0443914358594526e+01 8.4283078327669561e+00 -1.1976055215679787e+02 0 0 0
5144 147 4 0.0000000000000000e+00 -4.6032830960889335e+01 5.3218208351220140e+00 -1.3207661165295232e+02 0 0 0
5103 146 4 0.0000000000000000e+00 -4.1078179340843320e+01 3.4918104120230766e+00 -1.2098354128636831e+02 0 0 0
5143 147 4 0.0000000000000000e+00 -4.2940910552501244e+01 1.3539153916922336e+01 -1.2892578435666775e+02 0 0 0
3457 99 2 0.0000000000000000e+00 -1.6791343270687838e+02 2.3744409860973761e+01 -1.2175534175333402e+02 0 0 0
3456 99 2 0.0000000000000000e+00 -1.6987504495975702e+02 1.6973997762443595e+01 -1.2854591690037205e+02 0 0 0
6191 177 4 0.0000000000000000e+00 -1.5217354378891821e+02 1.9349721059455717e+01 -1.2018278851520749e+02 0 0 0
5355 153 4 0.0000000000000000e+00 -1.0286888918504548e+02 1.8415522761432428e+01 -1.2402397638780052e+02 0 0 0
1634 47 2 0.0000000000000000e+00 -9.1450467274633922e+01 1.9752780902397774e+01 -1.2446784829800616e+02 0 0 0
1633 47 2 0.0000000000000000e+00 -8.3144565522473044e+01 2.2760626506797180e+01 -1.2886092351120288e+02 0 0 0
1632 47 2 0.0000000000000000e+00 -7.5210368241749535e+01 1.7109850694642393e+01 -1.2988376219513131e+02 0 0 0
5347 153 4 0.0000000000000000e+00 -6.5399112065734897e+01 1.4405174025774526e+01 -1.2533991371942422e+02 0 0 0
485 14 2 0.0000000000000000e+00 -6.6982052634605765e+01 2.5124193796420528e+01 -1.2682440927820544e+02 0 0 0
5137 147 4 0.0000000000000000e+00 -7.4931633366511065e+01 2.3537114799847835e+01 -1.2051598180576417e+02 0 0 0
5346 153 4 0.0000000000000000e+00 -5.5942710540255938e+01 1.6381178954584609e+01 -1.2182818633816710e+02 0 0 0
5142 147 3 0.0000000000000000e+00 -3.6732753131852299e+01 1.9253077772703708e+01 -1.2370811993228136e+02 0 0 0
1540 44 2 0.0000000000000000e+00 -9.0142862894858979e+01 3.0477067772588395e+01 -1.2451580779747160e+02 0 0 0
1539 44 2 0.0000000000000000e+00 -9.5181943132954615e+01 3.7650223125948891e+01 -1.1966311649161352e+02 0 0 0
1645 47 2 0.0000000000000000e+00 -7.7576592893985421e+01 3.6854809426136633e+01 -1.2095994152025453e+02 0 0 0
486 14 2 0.0000000000000000e+00 -5.9370787777810129e+01 3.0614891176289500e+01 -1.2509957453708893e+02 0 0 0
487 14 1 0.0000000000000000e+00 -5.0181503850601182e+01 3.0775766860200893e+01 -1.2263639300691287e+02 0 0 0
488 14 2 0.0000000000000000e+00 -4.1717065979275922e+01 3.2611092028856937e+01 -1.2787751762577518e+02 0 0 0
6243 179 4 0.0000000000000000e+00 -8.1037316623279793e+01 -8.3345825011084031e+01 -1.0873073672113055e+02 0 0 0
6242 179 4 0.0000000000000000e+00 -7.8407606669303760e+01 -7.5534972696942191e+01 -1.1417432358364454e+02 0 0 0
1509 44 1 0.0000000000000000e+00 -6.8281733343172320e+01 -7.0356976550868708e+01 -1.0899500329964934e+02 0 0 0
6317 181 4 0.0000000000000000e+00 -5.6997804115640449e+01 -6.8508388720358994e+01 -1.1499598851780019e+02 0 0 0
2091 60 2 0.0000000000000000e+00 -8.0749105133932488e+01 -6.6162931915149500e+01 -1.0793457418707762e+02 0 0 0
2090 60 1 0.0000000000000000e+00 -7.7796640730640405e+01 -6.5075548252595496e+01 -1.1799622976074139e+02 0 0 0
1510 44 2 0.0000000000000000e+00 -6.5478997595833192e+01 -6.0811656957338933e+01 -1.0715233176964877e+02 0 0 0
3388 97 2 0.0000000000000000e+00 -5.9123298791383164e+01 -5.5758431607727324e+01 -1.1480362509259322e+02 0 0 0
4549 130 4 0.0000000000000000e+00 -3.6609979379818817e+01 -5.7614084315614996e+01 -1.0622575426792665e+02 0 0 0
702 21 2 0.0000000000000000e+00 -8.1067656960649714e+01 -4.3294101511855928e+01 -1.1321908568259757e+02 0 0 0
3386 97 2 0.0000000000000000e+00 -6.3889343679945995e+01 -4.1552524085469507e+01 -1.1849527258657415e+02 0 0 0
3387 97 2 0.0000000000000000e+00 -5.6019947225707050e+01 -4.6387734723198413e+01 -1.1502471045849926e+02 0 0 0
5531 159 4 0.0000000000000000e+00 -1.0913272639973906e+02 -3.3587045676565474e+01 -1.1598905982430334e+02 0 0 0
2078 60 2 0.0000000000000000e+00 -9.1140262645261444e+01 -2.8471455185098304e+01 -1.1607789240854594e+02 0 0 0
5532 159 4 0.0000000000000000e+00 -1.0112941008747089e+02 -3.4614146155859466e+01 -1.1049052097515840e+02 0 0 0
2079 60 2 0.0000000000000000e+00 -8.3168370626803735e+01 -3.4464494297162290e+01 -1.1734002297206779e+02 0 0 0
703 21 2 0.0000000000000000e+00 -8.4347956138172407e+01 -3.6889673369384802e+01 -1.0702075246124821e+02 0 0 0
704 21 1 0.0000000000000000e+00 -8.5474922028293065e+01 -2.7181330593157508e+01 -1.0655361039037099e+02 0 0 0
3385 97 1 0.0000000000000000e+00 -6.6650221437893080e+01 -3.2077189262320147e+01 -1.1559000589948283e+02 0 0 0
5120 147 4 0.0000000000000000e+00 -6.3501594665234876e+01 -2.7746704234410487e+01 -1.0617486067746701e+02 0 0 0
5121 147 3 0.0000000000000000e+00 -6.5786641011850378e+01 -3.7240280840773835e+01 -1.0598248916696529e+02 0 0 0
6233 179 4 0.0000000000000000e+00 -4.9022970874958183e+01 -3.8760598203036253e+01 -1.0929899583553711e+02 0 0 0
6234 179 3 0.0000000000000000e+00 -5.5398752869848998e+01 -3.2722690219371273e+01 -1.1339234226879576e+02 0 0 0
1625 47 2 0.0000000000000000e+00 -4.4369441100214402e+01 -3.1370675927422628e+01 -1.1847274510757576e+02 0 0 0
1624 47 2 0.0000000000000000e+00 -3.5555182684006994e+01 -3.5844858315652708e+01 -1.1567111293415797e+02 0 0 0
2077 60 2 0.0000000000000000e+00 -9.4063104694777294e+01 -2.0039682865080096e+01 -1.1133624787976383e+02 0 0 0
3384 97 2 0.0000000000000000e+00 -7.1734276277424229e+01 -2.4292849394032153e+01 -1.1350278650080153e+02 0 0 0
3383 97 2 0.0000000000000000e+00 -7.3200910704086382e+01 -1.4684296321500844e+01 -1.1208510047725208e+02 0 0 0
5084 146 4 0.0000000000000000e+00 -5.9226539553898114e+01 -1.7070718748110831e+01 -1.1251198251003743e+02 0 0 0
5083 146 4 0.0000000000000000e+00 -4.9277839683142275e+01 -1.3856795070971970e+01 -1.1100993423654418e+02 0 0 0
2206 64 2 0.0000000000000000e+00 -3.7700676090637899e+01 -1.5893411460303605e+01 -1.0832583648188498e+02 0 0 0
5099 146 4 0.0000000000000000e+00 -3.5166703434857972e+01 -2.5124795999684313e+01 -1.1287647618393225e+02 0 0 0
2075 60 2 0.0000000000000000e+00 -1.0319452537578258e+02 -3.6500600588428185e+00 -1.0874247491381333e+02 0 0 0
5351 153 4 0.0000000000000000e+00 -9.5231584432027191e+01 -4.7048597294408303e+00 -1.1825216121019945e+02 0 0 0
2076 60 1 0.0000000000000000e+00 -1.0014618074489438e+02 -1.2241159915729709e+01 -1.1284129784415029e+02 0 0 0
3380 97 2 0.0000000000000000e+00 -8.6879423566316248e+01 -3.4670559797419669e+00 -1.0920279977532961e+02 0 0 0
3382 97 2 0.0000000000000000e+00 -7.5339784991119757e+01 -4.6952774461856324e+00 -1.1208110299196008e+02 0 0 0
5343 153 4 0.0000000000000000e+00 -6.2492820634575793e+01 -3.7754343090235731e-01 -1.0802285895453967e+02 0 0 0
627 18 1 0.0000000000000000e+00 -4.9097524893002515e+01 -2.1785512308879618e+00 -1.1570807229181747e+02 0 0 0
6301 181 4 0.0000000000000000e+00 -3.5143043771461656e+01 -5.6468701483300299e+00 -1.1464110057010811e+02 0 0 0
3454 99 2 0.0000000000000000e+00 -1.6560744201728443e+02 7.2102308750606721e+00 -1.1198190283581359e+02 0 0 0
5353 153 4 0.0000000000000000e+00 -1.0984795383824290e+02 2.1404225146425273e+00 -1.1657027910727435e+02 0 0 0
5354 153 4 0.0000000000000000e+00 -1.0425631167362307e+02 9.8213230817898935e+00 -1.1932121910591292e+02 0 0 0
1638 47 2 0.0000000000000000e+00 -1.1074229662473229e+02 9.1857234223551121e+00 -1.0946739020969973e+02 0 0 0
1635 47 1 0.0000000000000000e+00 -9.0384400988757037e+01 1.1861699222487607e+01 -1.1882184084463834e+02 0 0 0
1637 47 2 0.0000000000000000e+00 -1.0199935140516173e+02 5.5924583340893772e+00 -1.1034183475692276e+02 0 0 0
1636 47 2 0.0000000000000000e+00 -9.2498857810892602e+01 5.7931807479111557e+00 -1.1121450233385421e+02 0 0 0
5349 153 4 0.0000000000000000e+00 -8.1241685905557091e+01 7.2151790203742792e+00 -1.1922011783961506e+02 0 0 0
3381 97 2 0.0000000000000000e+00 -7.9791597859689475e+01 2.4187716125084511e+00 -1.0587309672319489e+02 0 0 0
5348 153 4 0.0000000000000000e+00 -7.3010378570106454e+01 1.3112930472516531e+01 -1.1801589203001215e+02 0 0 0
5344 153 4 0.0000000000000000e+00 -5.5238638669357179e+01 5.5410075181162366e+00 -1.1181134299629478e+02 0 0 0
626 18 2 0.0000000000000000e+00 -4.5980123541417285e+01 2.4145487340138465e+00 -1.0783880607839077e+02 0 0 0
5104 146 4 0.0000000000000000e+00 -4.2419108507409348e+01 1.0832408969577672e+01 -1.1414094379044754e+02 0 0 0
5105 146 4 0.0000000000000000e+00 -4.7942613053192389e+01 1.1997929932030154e+01 -1.0665168695382953e+02 0 0 0
3458 99 2 0.0000000000000000e+00 -1.6836170101820483e+02 2.1597355222856965e+01 -1.1217753953445317e+02 0 0 0
6501 186 4 0.0000000000000000e+00 -1.4927347695380146e+02 1.6580127113407265e+01 -1.0945175289590497e+02 0 0 0
6190 177 4 0.0000000000000000e+00 -1.4572943709966367e+02 2.7284652411925315e+01 -1.1912546083406419e+02 0 0 0
6502 186 4 0.0000000000000000e+00 -1.4778180316484912e+02 2.6757422293468856e+01 -1.0806176722075564e+02 0 0 0
1641 47 2 0.0000000000000000e+00 -1.0822513731854792e+02 2.0910826960551947e+01 -1.1186450067813851e+02 0 0 0
1642 47 1 0.0000000000000000e+00 -9.9115758868681937e+01 2.2047424554217091e+01 -1.1512755509182368e+02 0 0 0
5135 147 3 0.0000000000000000e+00 -9.0115680190475487e+01 1.6944668898402814e+01 -1.0979412496464919e+02 0 0 0
5136 147 4 0.0000000000000000e+00 -8.3635297543488150e+01 1.9495245129114871e+01 -1.1687133730638546e+02 0 0 0
5138 147 4 0.0000000000000000e+00 -6.5936316975163592e+01 2.4727800009491716e+01 -1.1574925747968395e+02 0 0 0
5140 147 4 0.0000000000000000e+00 -4.8458350878485085e+01 2.1560569725007287e+01 -1.1453110413195083e+02 0 0 0
5139 147 4 0.0000000000000000e+00 -5.6646548088986506e+01 2.6183411364615036e+01 -1.1249331393057311e+02 0 0 0
5141 147 4 0.0000000000000000e+00 -4.0231001912907317e+01 2.6162327452030148e+01 -1.1711346845050033e+02 0 0 0
5906 169 4 0.0000000000000000e+00 -1.6339849357491374e+02 3.8799179630531441e+01 -1.1485705466040594e+02 0 0 0
5907 169 4 0.0000000000000000e+00 -1.5457838286806853e+02 3.5817652676787233e+01 -1.1062392657697613e+02 0 0 0
5908 169 4 0.0000000000000000e+00 -1.4455328746253386e+02 3.7190842106479799e+01 -1.1031992696228809e+02 0 0 0
6189 177 4 0.0000000000000000e+00 -1.3786058472904631e+02 2.7892861548683371e+01 -1.1330161051141006e+02 0 0 0
1643 47 2 0.0000000000000000e+00 -9.1949803447172926e+01 2.9175933560697793e+01 -1.1290035047665701e+02 0 0 0
1644 47 2 0.0000000000000000e+00 -8.2552611579134663e+01 3.0983831549874836e+01 -1.1452425604180620e+02 0 0 0
6519 187 4 0.0000000000000000e+00 -8.1313606951143726e+01 4.0283467209006830e+01 -1.1254195853624434e+02 0 0 0
3364 97 1 0.0000000000000000e+00 -6.7338800682603278e+01 2.8472382043389985e+01 -1.0581017902062392e+02 0 0 0
3363 97 2 0.0000000000000000e+00 -7.0827729741648568e+01 3.4562970866385072e+01 -1.1282559187689556e+02 0 0 0
3630 104 3 0.0000000000000000e+00 -6.0411783620233201e+01 3.5281805024492108e+01 -1.1024939671583739e+02 0 0 0
3638 104 4 0.0000000000000000e+00 -4.8506507903086700e+01 3.2590253324613755e+01 -1.1226055169091192e+02 0 0 0
3637 104 3 0.0000000000000000e+00 -4.8385161851849034e+01 4.0879181392885521e+01 -1.1797809070173228e+02 0 0 0
5441 156 4 0.0000000000000000e+00 -4.0389732665417611e+01 3.5489447432916158e+01 -1.0653158189921281e+02 0 0 0
2820 81 2 0.0000000000000000e+00 -9.1612059437997445e+01 -8.2775175204646501e+01 -9.2205403120368501e+01 0 0 0
6244 179 4 0.0000000000000000e+00 -8.6506486312470969e+01 -9.0057648009458674e+01 -1.0332499562962998e+02 0 0 0
6245 179 4 0.0000000000000000e+00 -8.7529155325682297e+01 -9.2408016130829424e+01 -9.3857715267320572e+01 0 0 0
2821 81 2 0.0000000000000000e+00 -9.9445587623489516e+01 -7.7641996588945432e+01 -9.5102068962947200e+01 0 0 0
2822 81 2 0.0000000000000000e+00 -9.9823979221755536e+01 -6.8098261581902406e+01 -9.7158225303467347e+01 0 0 0
1508 44 2 0.0000000000000000e+00 -7.5839271283051190e+01 -7.4919561150561492e+01 -1.0330100696982844e+02 0 0 0
1507 44 2 0.0000000000000000e+00 -7.3258358133923281e+01 -7.1752180703866500e+01 -9.4598783866636822e+01 0 0 0
6318 181 3 0.0000000000000000e+00 -5.8114283582241107e+01 -6.7600109569046893e+01 -1.0507326043403629e+02 0 0 0
6319 181 4 0.0000000000000000e+00 -5.7425921629318168e+01 -6.9329830368168118e+01 -9.5585506116483529e+01 0 0 0
2092 60 2 0.0000000000000000e+00 -8.5899119340162500e+01 -6.4141202360310132e+01 -9.9954864613717618e+01 0 0 0
1511 44 2 0.0000000000000000e+00 -5.8414784461184759e+01 -5.4539053456512555e+01 -1.0330173506990957e+02 0 0 0
5125 147 4 0.0000000000000000e+00 -1.0357763750510287e+02 -4.6399961825577840e+01 -9.7291677589258555e+01 0 0 0
5124 147 4 0.0000000000000000e+00 -9.3946762187969640e+01 -4.3589936349028228e+01 -9.6399774923201534e+01 0 0 0
2220 64 2 0.0000000000000000e+00 -7.7380493339670977e+01 -5.0259443750599118e+01 -9.3897848536482542e+01 0 0 0
5123 147 4 0.0000000000000000e+00 -8.4163658201052442e+01 -4.1825401469597061e+01 -9.8845510271453250e+01 0 0 0
2221 64 2 0.0000000000000000e+00 -6.8623340869420758e+01 -4.9423677796537319e+01 -9.7696165794053670e+01 0 0 0
2222 64 2 0.0000000000000000e+00 -6.0069879095704103e+01 -4.3877927232509414e+01 -1.0014063095533480e+02 0 0 0
1512 44 2 0.0000000000000000e+00 -5.1175818415159036e+01 -5.0850569149998108e+01 -9.8165587990261344e+01 0 0 0
4550 130 4 0.0000000000000000e+00 -3.6536370635558328e+01 -5.2691724437022508e+01 -9.7213400740450169e+01 0 0 0
6232 179 4 0.0000000000000000e+00 -4.1520172744446420e+01 -4.0375136268605289e+01 -1.0317991801640716e+02 0 0 0
5533 159 4 0.0000000000000000e+00 -9.6083653489309967e+01 -3.3481759027948335e+01 -1.0208858510273632e+02 0 0 0
5534 159 3 0.0000000000000000e+00 -8.7539130631596834e+01 -3.2255255431412245e+01 -9.6131364048037526e+01 0 0 0
4197 120 3 0.0000000000000000e+00 -7.5532708158543144e+01 -2.7964803385566004e+01 -1.0297903926889225e+02 0 0 0
4196 120 4 0.0000000000000000e+00 -7.6154527314541085e+01 -3.1529586683199678e+01 -9.3901511819677964e+01 0 0 0
5122 147 4 0.0000000000000000e+00 -7.5347718865476111e+01 -3.9077159264425561e+01 -1.0245025775406403e+02 0 0 0
2223 64 1 0.0000000000000000e+00 -5.8962073867248236e+01 -3.5211997179611451e+01 -9.6948331110956232e+01 0 0 0
1527 44 2 0.0000000000000000e+00 -1.3688221019226808e+02 -1.5838684243540456e+01 -9.5354484910310177e+01 0 0 0
705 21 2 0.0000000000000000e+00 -9.1695849118445381e+01 -2.1358758706180510e+01 -1.0081900119695599e+02 0 0 0
706 21 2 0.0000000000000000e+00 -9.7928390128627726e+01 -2.0378876344538888e+01 -9.2568826850006005e+01 0 0 0
2213 64 2 0.0000000000000000e+00 -7.8480947638707278e+01 -1.8760137298734662e+01 -9.2412444687660681e+01 0 0 0
4198 120 4 0.0000000000000000e+00 -7.5436597491675499e+01 -1.7977233815128802e+01 -1.0383643241211752e+02 0 0 0
2212 64 2 0.0000000000000000e+00 -6.9152421867968513e+01 -1.9090561913692035e+01 -9.4530686862892324e+01 0 0 0
2211 64 2 0.0000000000000000e+00 -6.2898674223436991e+01 -2.6473450704464824e+01 -9.2295873519180347e+01 0 0 0
5119 147 4 0.0000000000000000e+00 -5.4501360756526559e+01 -2.3691033186897172e+01 -1.0383095710900993e+02 0 0 0
5081 146 4 0.0000000000000000e+00 -5.6190341729081872e+01 -1.3675912134823445e+01 -9.8516792310172605e+01 0 0 0
5118 147 4 0.0000000000000000e+00 -4.5005639059406299e+01 -2.3074297345000737e+01 -1.0113631661797660e+02 0 0 0
5117 147 4 0.0000000000000000e+00 -3.6951645136118842e+01 -2.5253239708910304e+01 -9.5535217735386425e+01 0 0 0
6498 186 4 0.0000000000000000e+00 -1.4599265378684606e+02 -6.6265291388698984e+00 -9.5045643471324681e+01 0 0 0
6499 186 4 0.0000000000000000e+00 -1.5057416783081621e+02 -1.9898745582414510e+00 -1.0262298072574261e+02 0 0 0
1528 44 2 0.0000000000000000e+00 -1.3372923699861107e+02 -9.0927568978195570e+00 -1.0035607154820021e+02 0 0 0
2074 60 2 0.0000000000000000e+00 -1.1195222719303021e+02 -1.2046623289258240e+00 -1.0413949928981521e+02 0 0 0
3379 97 2 0.0000000000000000e+00 -9.3117319332358107e+01 -7.3824993545063586e+00 -1.0248388524373686e+02 0 0 0
5132 147 4 0.0000000000000000e+00 -1.0085490575095004e+02 -4.3919080948714333e+00 -9.6205201796952181e+01 0 0 0
3378 97 1 0.0000000000000000e+00 -8.8113537768975192e+01 -3.2854881081340812e+00 -9.4374287729813958e+01 0 0 0
5340 153 4 0.0000000000000000e+00 -8.2759332419236245e+01 -1.1002353887655687e+01 -9.5383999460281800e+01 0 0 0
5341 153 4 0.0000000000000000e+00 -7.7729390513010031e+01 -2.0478837651479713e+00 -9.5702035556352342e+01 0 0 0
4199 120 4 0.0000000000000000e+00 -7.1958488615005948e+01 -9.2779866506278541e+00 -1.0158970723276532e+02 0 0 0
4200 120 4 0.0000000000000000e+00 -6.3217041497650214e+01 -7.2449555900650049e+00 -9.7282999276499979e+01 0 0 0
5342 153 4 0.0000000000000000e+00 -6.8124879801245640e+01 -5.6436619746991538e-02 -1.0031324992399985e+02 0 0 0
5082 146 4 0.0000000000000000e+00 -4.7843630302781406e+01 -9.0238532615862699e+00 -1.0157906632833108e+02 0 0 0
3453 99 2 0.0000000000000000e+00 -1.5903787123811028e+02 6.9105858590915386e+00 -1.0486569943867448e+02 0 0 0
6500 186 3 0.0000000000000000e+00 -1.4771039682263245e+02 7.3026272461826336e+00 -1.0541864472044563e+02 0 0 0
3452 99 2 0.0000000000000000e+00 -1.5525084192849616e+02 7.9941007807555540e+00 -9.5524407286352599e+01 0 0 0
1529 44 2 0.0000000000000000e+00 -1.3429412979012767e+02 5.1315394305592732e-01 -1.0095720605089900e+02 0 0 0
1530 44 1 0.0000000000000000e+00 -1.3767365390524205e+02 9.7562990655525113e+00 -1.0160830391223537e+02 0 0 0
3462 99 1 0.0000000000000000e+00 -1.4139937257184764e+02 6.6201040305485357e+00 -9.3182067407233703e+01 0 0 0
2073 60 2 0.0000000000000000e+00 -1.1728847099305948e+02 2.6703826799929526e+00 -9.6698231665466082e+01 0 0 0
1639 47 2 0.0000000000000000e+00 -1.1647449573017262e+02 1.2670619026347527e+01 -1.0142828412299149e+02 0 0 0
2072 60 2 0.0000000000000000e+00 -1.0863747244675102e+02 6.4333563769053823e+00 -9.4840793350664711e+01 0 0 0
2071 60 2 0.0000000000000000e+00 -1.0207663378642069e+02 1.3894653550026268e+01 -9.5894361913632608e+01 0 0 0
5133 147 4 0.0000000000000000e+00 -9.6947668031874940e+01 3.9203997095003276e+00 -1.0004169140868774e+02 0 0 0
5134 147 4 0.0000000000000000e+00 -9.7350713778392560e+01 1.3526174294574034e+01 -1.0407109270235550e+02 0 0 0
6526 187 4 0.0000000000000000e+00 -7.6707524732266279e+01 7.2644022682240710e+00 -9.7347748313366722e+01 0 0 0
6525 187 4 0.0000000000000000e+00 -6.7470051048991323e+01 1.1016948033196188e+01 -9.7703691246773232e+01 0 0 0
5106 146 4 0.0000000000000000e+00 -5.1982505294834006e+01 7.6424722956163187e+00 -9.9459774165193991e+01 0 0 0
5107 146 3 0.0000000000000000e+00 -5.8983051979078468e+01 3.7160685592987792e+00 -9.3244013363897309e+01 0 0 0
625 18 2 0.0000000000000000e+00 -4.0362793547030975e+01 8.0719694484610347e+00 -1.0199451614531959e+02 0 0 0
3459 99 2 0.0000000000000000e+00 -1.6140348713634560e+02 2.0896057581772006e+01 -1.0463106224273230e+02 0 0 0
3461 99 2 0.0000000000000000e+00 -1.4657241049514423e+02 1.4037035823121986e+01 -9.7787921081275414e+01 0 0 0
3460 99 2 0.0000000000000000e+00 -1.5327083143004896e+02 2.1203873238170480e+01 -9.8674783413343491e+01 0 0 0
6188 177 4 0.0000000000000000e+00 -1.3305389612115164e+02 2.6024041716101475e+01 -1.0468670595850706e+02 0 0 0
1531 44 2 0.0000000000000000e+00 -1.3372260274817853e+02 1.8694767971116633e+01 -9.9688298773906169e+01 0 0 0
1532 44 2 0.0000000000000000e+00 -1.3571323159120729e+02 2.7232746685818377e+01 -9.4462233295927277e+01 0 0 0
1640 47 2 0.0000000000000000e+00 -1.1438465968887382e+02 2.1422076574717750e+01 -1.0449673078058404e+02 0 0 0
2488 72 2 0.0000000000000000e+00 -9.0991547179038719e+01 2.7228508050128259e+01 -1.0096959117866419e+02 0 0 0
2070 60 2 0.0000000000000000e+00 -9.4003051115883537e+01 1.8791254619703146e+01 -9.5307533052311399e+01 0 0 0
2487 72 2 0.0000000000000000e+00 -8.1964446320008634e+01 2.2480239170235411e+01 -1.0105102686013862e+02 0 0 0
3365 97 2 0.0000000000000000e+00 -6.2694684973142543e+01 2.5621768266097973e+01 -9.7180973182235249e+01 0 0 0
2486 72 2 0.0000000000000000e+00 -7.1576551422914633e+01 2.1541304721805439e+01 -1.0073567760339769e+02 0 0 0
3366 97 2 0.0000000000000000e+00 -5.3896095418444268e+01 2.1643430019945956e+01 -9.4936574162303586e+01 0 0 0
624 18 2 0.0000000000000000e+00 -3.7550162303593055e+01 1.7423350318856613e+01 -9.9306663674127691e+01 0 0 0
3640 104 4 0.0000000000000000e+00 -4.2871093051292213e+01 2.6923184449482221e+01 -9.3859462701897328e+01 0 0 0
3438 99 2 0.0000000000000000e+00 -1.7972894871914008e+02 3.7243741969968163e+01 -9.2700202215034977e+01 0 0 0
6503 186 4 0.0000000000000000e+00 -1.5109736831539294e+02 3.4024204677392873e+01 -1.0230997807616605e+02 0 0 0
6504 186 4 0.0000000000000000e+00 -1.5579955077654103e+02 3.4770449521135163e+01 -9.2983877620625435e+01 0 0 0
6888 197 4 0.0000000000000000e+00 -1.4213318908579367e+02 3.7135610705096070e+01 -9.8538782872498800e+01 0 0 0
1533 44 2 0.0000000000000000e+00 -1.3334578577448158e+02 3.6989538165889570e+01 -9.3532107079231324e+01 0 0 0
6187 177 4 0.0000000000000000e+00 -1.2652395299526437e+02 3.0292376902579349e+01 -9.8724038173266734e+01 0 0 0
6186 177 4 0.0000000000000000e+00 -1.1877547890621177e+02 3.3740097847641245e+01 -9.3238404028614738e+01 0 0 0
2489 72 1 0.0000000000000000e+00 -9.6560679453951906e+01 3.5774114123545431e+01 -1.0051104420211649e+02 0 0 0
6521 187 3 0.0000000000000000e+00 -8.6360190992434525e+01 3.5109860393096341e+01 -9.6908817663263790e+01 0 0 0
6522 187 4 0.0000000000000000e+00 -7.8952534492664469e+01 2.9785706696759959e+01 -9.4068084204875163e+01 0 0 0
6518 187 4 0.0000000000000000e+00 -7.7718984850385056e+01 3.7049526087148905e+01 -1.0370829878386131e+02 0 0 0
6520 187 4 0.0000000000000000e+00 -8.8390287218115986e+01 3.9583372256228060e+01 -1.0544533095978261e+02 0 0 0
3629 104 4 0.0000000000000000e+00 -6.2170172446107905e+01 3.6304128105662784e+01 -1.0045853248676374e+02 0 0 0
6517 187 4 0.0000000000000000e+00 -7.5461320606513482e+01 4.0832109770146054e+01 -9.4267982816804064e+01 0 0 0
3628 104 4 0.0000000000000000e+00 -5.3226529377091644e+01 3.8861524689064581e+01 -9.5717035059327529e+01 0 0 0
3639 104 4 0.0000000000000000e+00 -4.8605554236163798e+01 2.9944240802496374e+01 -1.0202872211372167e+02 0 0 0
1770 51 2 0.0000000000000000e+00 -3.5599204360921071e+01 4.0859974702117171e+01 -9.8870797187284822e+01 0 0 0
6246 179 4 0.0000000000000000e+00 -8.6111716623270354e+01 -9.3651141363020841e+01 -8.3689648992318794e+01 0 0 0
2819 81 2 0.0000000000000000e+00 -8.5461872899942989e+01 -8.3739861456609162e+01 -8.3710071476345746e+01 0 0 0