LAMMPS data file via write_data, version 5 Jun 2019, timestep = 440000000

7000 atoms
4 atom types
7280 bonds
3 bond types
6600 angles
2 angle types

-5.0000000000000000e+02 5.0000000000000000e+02 xlo xhi
-5.0000000000000000e+02 5.0000000000000000e+02 ylo yhi
-5.0000000000000000e+02 5.0000000000000000e+02 zlo zhi

Masses

1 1000
2 1000
3 1000
4 1000

Pair Coeffs # lj/cut

1 0.296 10
2 0.296 10
3 0.296 10
4 0.296 10

Angle Coeffs # cosine

1 2
2 2

Atoms # full

2066 60 2 0.0000000000000000e+00 -1.2197736948257543e+02 2.5503340494570040e+01 -1.5501005640146249e+02 0 0 0
2488 72 2 0.0000000000000000e+00 -8.0609531783461321e+01 3.6195946732918145e+01 -1.5792542882527704e+02 0 0 0
2487 72 2 0.0000000000000000e+00 -7.3633784933498745e+01 3.1971058989154802e+01 -1.5340032971481199e+02 0 0 0
3012 87 2 0.0000000000000000e+00 -6.0811468295297345e+01 2.4073749290884290e+01 -1.5778438433991400e+02 0 0 0
3011 87 2 0.0000000000000000e+00 -5.5241522830204104e+01 2.8754049237294815e+01 -1.6472972966855892e+02 0 0 0
2490 72 2 0.0000000000000000e+00 -8.9312105966287092e+01 4.9705024528266229e+01 -1.5504309807245127e+02 0 0 0
2489 72 1 0.0000000000000000e+00 -8.8633376875002725e+01 3.9621931931199313e+01 -1.5366005876409653e+02 0 0 0
3186 92 2 0.0000000000000000e+00 -5.8622929623534496e+01 4.5769881958685694e+01 -1.6286092690864311e+02 0 0 0
3187 92 2 0.0000000000000000e+00 -5.1550254601108463e+01 4.6221810526316986e+01 -1.5571296105322944e+02 0 0 0
2491 72 2 0.0000000000000000e+00 -8.2741945269159402e+01 5.7639961838439845e+01 -1.5665090798215053e+02 0 0 0
6248 179 3 0.0000000000000000e+00 -6.3761447821541431e+01 -3.2914552137736877e+01 -1.3978875691232020e+02 0 0 0
6247 179 4 0.0000000000000000e+00 -7.1108876531681915e+01 -2.5659971386729922e+01 -1.4017488939138809e+02 0 0 0
3920 112 4 0.0000000000000000e+00 -3.6026832835597993e+01 -7.2773004321332895e+00 -1.4293117414374464e+02 0 0 0
3018 87 2 0.0000000000000000e+00 -4.7478617714234417e+01 -1.7848137043629933e-02 -1.4252642539568058e+02 0 0 0
3019 87 2 0.0000000000000000e+00 -3.8084860055851081e+01 3.4491103963823400e+00 -1.4306775987568713e+02 0 0 0
3020 87 2 0.0000000000000000e+00 -3.0516588053550365e+01 9.6037158529448199e+00 -1.4500336950013113e+02 0 0 0
3014 87 1 0.0000000000000000e+00 -6.2566328725336660e+01 1.7215604962035098e+01 -1.4000954517647330e+02 0 0 0
3013 87 2 0.0000000000000000e+00 -6.0335006237623276e+01 2.0341840881694548e+01 -1.4867006862354415e+02 0 0 0
5111 147 4 0.0000000000000000e+00 -4.6909675865762161e+01 1.7397951682057116e+01 -1.4070320933997093e+02 0 0 0
2067 60 2 0.0000000000000000e+00 -1.2608497958153848e+02 2.6644801506608246e+01 -1.4604417656001789e+02 0 0 0
3389 97 2 0.0000000000000000e+00 -1.0689902284846056e+02 3.6125401119913050e+01 -1.4015033483264307e+02 0 0 0
3388 97 2 0.0000000000000000e+00 -9.7855107070240678e+01 3.2509166425339195e+01 -1.4155521487824655e+02 0 0 0
2486 72 2 0.0000000000000000e+00 -6.4320914482187419e+01 3.2421646842653047e+01 -1.4958441208313792e+02 0 0 0
5100 146 3 0.0000000000000000e+00 -6.2215064621984880e+01 2.8219593173282149e+01 -1.3957497865088226e+02 0 0 0
5913 169 4 0.0000000000000000e+00 -8.8360390234757702e+01 4.3586489609899971e+01 -1.4332549559347981e+02 0 0 0
5914 169 4 0.0000000000000000e+00 -9.8652104000629976e+01 4.2428496289449924e+01 -1.4191849685125163e+02 0 0 0
5912 169 3 0.0000000000000000e+00 -7.9995655818511281e+01 4.5751709214208063e+01 -1.4789734098914329e+02 0 0 0
5911 169 4 0.0000000000000000e+00 -7.0662710425812605e+01 5.0376212223945622e+01 -1.4692445913363585e+02 0 0 0
3188 92 2 0.0000000000000000e+00 -5.1221865310463684e+01 5.0764330167579985e+01 -1.4706504699754944e+02 0 0 0
2345 67 2 0.0000000000000000e+00 -3.8045554832760402e+01 4.8336853695018860e+01 -1.4530080181777927e+02 0 0 0
3392 97 1 0.0000000000000000e+00 -1.1874440320583398e+02 5.6814808685846828e+01 -1.3976020899750236e+02 0 0 0
3393 97 2 0.0000000000000000e+00 -1.2639798065508127e+02 6.2215353638185036e+01 -1.4263208322874908e+02 0 0 0
6191 177 4 0.0000000000000000e+00 -1.0210761512959024e+02 5.5611857873777240e+01 -1.5170440762452336e+02 0 0 0
6192 177 3 0.0000000000000000e+00 -1.1162360919703636e+02 5.8078381780134350e+01 -1.4909267681718356e+02 0 0 0
1729 50 2 0.0000000000000000e+00 -1.0188420473907125e+02 6.2852868711802039e+01 -1.4542011429120279e+02 0 0 0
6190 177 4 0.0000000000000000e+00 -9.2740763037285518e+01 5.7112227059353557e+01 -1.4845477625643377e+02 0 0 0
2492 72 2 0.0000000000000000e+00 -8.2134379872199759e+01 6.2676054473602385e+01 -1.4795046356542269e+02 0 0 0
6185 177 3 0.0000000000000000e+00 -6.5900607950450876e+01 6.4307299770130896e+01 -1.4265469401671743e+02 0 0 0
3189 92 1 0.0000000000000000e+00 -5.6132273932707456e+01 5.8945444282808019e+01 -1.4450886507602331e+02 0 0 0
2344 67 2 0.0000000000000000e+00 -3.0851613585020722e+01 5.5109413040540474e+01 -1.4424294773607355e+02 0 0 0
5110 146 4 0.0000000000000000e+00 -3.7964679953855786e+01 6.3611544806630853e+01 -1.4768046416871667e+02 0 0 0
2820 81 2 0.0000000000000000e+00 -7.6738580698958359e+01 -4.7168576045636144e+01 -1.2662037116416600e+02 0 0 0
2819 81 2 0.0000000000000000e+00 -7.0455995918438930e+01 -4.0670568512673171e+01 -1.3037717944835217e+02 0 0 0
6252 179 4 0.0000000000000000e+00 -4.3714509103298369e+01 -3.9635598997552499e+01 -1.2748552089627327e+02 0 0 0
6246 179 4 0.0000000000000000e+00 -7.9196577597239568e+01 -2.6561578152001303e+01 -1.3342400970278618e+02 0 0 0
2818 81 1 0.0000000000000000e+00 -6.8757706436502758e+01 -3.1210763632469877e+01 -1.2950761605156291e+02 0 0 0
6249 179 4 0.0000000000000000e+00 -6.0935853691696366e+01 -2.5988528091973400e+01 -1.3301988889167492e+02 0 0 0
6251 179 4 0.0000000000000000e+00 -4.5924609077921396e+01 -3.0320331975969552e+01 -1.3019918905473682e+02 0 0 0
6250 179 4 0.0000000000000000e+00 -5.2791945092342630e+01 -2.2433163274596076e+01 -1.2901956631980843e+02 0 0 0
3918 112 4 0.0000000000000000e+00 -3.8846457422272877e+01 -1.7998776650393275e+01 -1.2774415049974942e+02 0 0 0
2074 60 2 0.0000000000000000e+00 -8.8205159555664167e+01 -8.6095031118609633e+00 -1.3308395354868517e+02 0 0 0
2075 60 2 0.0000000000000000e+00 -7.8905429245588692e+01 -7.6889581581373934e+00 -1.2946491229840211e+02 0 0 0
2076 60 1 0.0000000000000000e+00 -6.9524624396501324e+01 -1.2374948222038968e+01 -1.2878469230567498e+02 0 0 0
2077 60 2 0.0000000000000000e+00 -6.1557779671700203e+01 -1.5609545307452686e+01 -1.3480105114478673e+02 0 0 0
2078 60 2 0.0000000000000000e+00 -5.4805665171605973e+01 -8.8767211295633217e+00 -1.3565907678911537e+02 0 0 0
2079 60 2 0.0000000000000000e+00 -4.7560267375601221e+01 -6.2733010219461471e+00 -1.2965783929167020e+02 0 0 0
3919 112 4 0.0000000000000000e+00 -4.0613602876087434e+01 -1.1412531123303811e+01 -1.3538792341939282e+02 0 0 0
4750 136 3 0.0000000000000000e+00 -3.0833910506587120e+01 -9.4494672570014409e+00 -1.3337008095404022e+02 0 0 0
6524 187 4 0.0000000000000000e+00 -1.1275228304284289e+02 3.5008224221443975e+00 -1.2621277357984883e+02 0 0 0
2073 60 2 0.0000000000000000e+00 -9.4385084847683444e+01 -1.7130740534208189e-01 -1.3145988268789350e+02 0 0 0
2072 60 2 0.0000000000000000e+00 -9.6300930684265296e+01 8.3032034888287498e+00 -1.2597578946440795e+02 0 0 0
6527 187 4 0.0000000000000000e+00 -8.5245027024489360e+01 4.1635622648838222e+00 -1.2592248208133125e+02 0 0 0
3016 87 2 0.0000000000000000e+00 -6.4404851815524140e+01 4.7688415529897812e+00 -1.3332569939826323e+02 0 0 0
3017 87 2 0.0000000000000000e+00 -5.6597190452976392e+01 1.4735632798083240e+00 -1.3865855580148198e+02 0 0 0
5089 146 4 0.0000000000000000e+00 -4.5649837552174297e+01 5.9625070532294480e+00 -1.3207494268309139e+02 0 0 0
4751 136 4 0.0000000000000000e+00 -3.5723262769427869e+01 -6.7405308324700786e-01 -1.3247435076190192e+02 0 0 0
6521 187 3 0.0000000000000000e+00 -1.3155785480000989e+02 2.3222124700869838e+01 -1.3333624705510525e+02 0 0 0
6523 187 4 0.0000000000000000e+00 -1.1913751237747810e+02 1.0665185173389796e+01 -1.2988786734267072e+02 0 0 0
6522 187 4 0.0000000000000000e+00 -1.2406698887165658e+02 1.6489401275728305e+01 -1.3566887071944873e+02 0 0 0
2070 60 2 0.0000000000000000e+00 -1.1288382172801472e+02 1.8586928179864980e+01 -1.2712397073954529e+02 0 0 0
2071 60 2 0.0000000000000000e+00 -1.0556729439136541e+02 1.2364034166982703e+01 -1.2623878704746539e+02 0 0 0
1539 44 2 0.0000000000000000e+00 -9.9182692195204751e+01 1.7123513523655159e+01 -1.3635590964573962e+02 0 0 0
1538 44 2 0.0000000000000000e+00 -9.0498385909281794e+01 1.6518924024809891e+01 -1.3081129558317738e+02 0 0 0
5098 146 4 0.0000000000000000e+00 -7.8849531371839788e+01 1.6645670783018097e+01 -1.3728364680669782e+02 0 0 0
3015 87 2 0.0000000000000000e+00 -7.0289541153115522e+01 1.2216066753270436e+01 -1.3501436460895150e+02 0 0 0
5113 147 4 0.0000000000000000e+00 -6.2087259549058466e+01 2.2289865054156820e+01 -1.2970443699434418e+02 0 0 0
5099 146 4 0.0000000000000000e+00 -7.0356084178195673e+01 2.2317880137287521e+01 -1.3787850742865115e+02 0 0 0
5112 147 4 0.0000000000000000e+00 -5.3148903781224504e+01 1.8550143715784717e+01 -1.3281065075398052e+02 0 0 0
5088 146 4 0.0000000000000000e+00 -3.8563952861365976e+01 1.1716564325646662e+01 -1.3635976971524818e+02 0 0 0
5087 146 4 0.0000000000000000e+00 -2.9882822245343583e+01 1.6687267468716797e+01 -1.3602253484018240e+02 0 0 0
2068 60 2 0.0000000000000000e+00 -1.2310042746659197e+02 3.0616229922811311e+01 -1.3664797472125105e+02 0 0 0
2069 60 1 0.0000000000000000e+00 -1.2145592996565892e+02 2.3581944741131565e+01 -1.2960576218062781e+02 0 0 0
6504 186 4 0.0000000000000000e+00 -1.1348619317968281e+02 3.4117017640125134e+01 -1.2596183535718420e+02 0 0 0
1540 44 2 0.0000000000000000e+00 -1.0690858963290681e+02 2.3587233812702731e+01 -1.3594601497980523e+02 0 0 0
2920 84 2 0.0000000000000000e+00 -9.9272608693029682e+01 2.4239398631181515e+01 -1.2644768312785411e+02 0 0 0
3387 97 2 0.0000000000000000e+00 -8.8239184669818016e+01 3.2769576379814815e+01 -1.3909981648870891e+02 0 0 0
5096 146 4 0.0000000000000000e+00 -8.6773595071171925e+01 3.0745696439972281e+01 -1.2648754207988827e+02 0 0 0
5097 146 4 0.0000000000000000e+00 -8.0691078273406490e+01 2.4126894753070161e+01 -1.3022877396504066e+02 0 0 0
3386 97 2 0.0000000000000000e+00 -7.8616017683516986e+01 3.4669514388176488e+01 -1.3512897921519757e+02 0 0 0
5114 147 3 0.0000000000000000e+00 -6.9634060604610809e+01 2.9255866502846128e+01 -1.2869400681793820e+02 0 0 0
5131 147 4 0.0000000000000000e+00 -4.4055839876777540e+01 3.6590703249129611e+01 -1.2804565620429295e+02 0 0 0
3390 97 2 0.0000000000000000e+00 -1.1551599306302452e+02 3.9870074148350625e+01 -1.3680510831958654e+02 0 0 0
3391 97 2 0.0000000000000000e+00 -1.2113716710898245e+02 4.8265651908719775e+01 -1.3586785632164410e+02 0 0 0
4761 137 4 0.0000000000000000e+00 -1.2543308333561380e+02 4.7327935232433795e+01 -1.2660739842443640e+02 0 0 0
5915 169 4 0.0000000000000000e+00 -1.0572977531850171e+02 4.8635456445638177e+01 -1.3915158822258161e+02 0 0 0
3385 97 1 0.0000000000000000e+00 -7.0487749715380644e+01 4.0034556973690314e+01 -1.3319443685426086e+02 0 0 0
3384 97 2 0.0000000000000000e+00 -6.3044074978280847e+01 3.7696626206432633e+01 -1.2689586933501225e+02 0 0 0
5101 146 4 0.0000000000000000e+00 -5.8591227607725720e+01 3.7601051621895152e+01 -1.3796736776683349e+02 0 0 0
5102 146 4 0.0000000000000000e+00 -5.1113935008312161e+01 4.3069264050327867e+01 -1.3439775902953264e+02 0 0 0
5130 147 4 0.0000000000000000e+00 -3.9000034462134600e+01 4.5296223301799067e+01 -1.2582459425538251e+02 0 0 0
1731 50 2 0.0000000000000000e+00 -1.1366916744859898e+02 5.5989800865396163e+01 -1.3130984215506538e+02 0 0 0
1730 50 2 0.0000000000000000e+00 -1.0796407081729321e+02 5.8604670785470553e+01 -1.3889310258469646e+02 0 0 0
6189 177 4 0.0000000000000000e+00 -9.1128912785271439e+01 5.4780728155188072e+01 -1.3881744781012455e+02 0 0 0
6188 177 4 0.0000000000000000e+00 -8.5530955299582587e+01 6.1352876799454435e+01 -1.3317724208621223e+02 0 0 0
5910 169 4 0.0000000000000000e+00 -6.8354657735248992e+01 5.2097495515182267e+01 -1.3777860388000227e+02 0 0 0
5909 169 4 0.0000000000000000e+00 -6.2927555490850175e+01 5.5385115625184390e+01 -1.3034019855387413e+02 0 0 0
5908 169 4 0.0000000000000000e+00 -6.7175450554204531e+01 6.4499579675640391e+01 -1.2880416386023941e+02 0 0 0
3190 92 2 0.0000000000000000e+00 -5.5037494999721048e+01 6.0605244720513056e+01 -1.3448808563055422e+02 0 0 0
1773 51 2 0.0000000000000000e+00 -3.5143448934295357e+01 5.7602928605781678e+01 -1.3061281165433789e+02 0 0 0
1366 40 2 0.0000000000000000e+00 -1.1204458730511890e+02 -5.0684785989005405e+01 -1.1258014780532159e+02 0 0 0
2821 81 2 0.0000000000000000e+00 -8.4218396310620165e+01 -4.9655697065459329e+01 -1.2081980874804971e+02 0 0 0
2816 81 2 0.0000000000000000e+00 -5.9080351205469725e+01 -3.3831620329948137e+01 -1.1712330679749871e+02 0 0 0
6253 179 4 0.0000000000000000e+00 -4.2099792118865849e+01 -3.8254075599717162e+01 -1.1758146081195986e+02 0 0 0
2089 60 2 0.0000000000000000e+00 -3.0789871756461352e+01 -3.4561339139051597e+01 -1.1908408500741193e+02 0 0 0
6244 179 4 0.0000000000000000e+00 -8.3212898630161789e+01 -2.5210290669269611e+01 -1.1427174121346398e+02 0 0 0
6245 179 4 0.0000000000000000e+00 -8.2137984228504479e+01 -2.6321294818712754e+01 -1.2398998204056511e+02 0 0 0
2817 81 2 0.0000000000000000e+00 -6.4470400294791759e+01 -2.6793385748098949e+01 -1.2188855367272303e+02 0 0 0
2092 60 2 0.0000000000000000e+00 -5.6269319296825174e+01 -2.0381946555759381e+01 -1.1654476373340745e+02 0 0 0
2091 60 2 0.0000000000000000e+00 -4.8128851322421511e+01 -2.5746415639864999e+01 -1.1986656533880419e+02 0 0 0
2090 60 1 0.0000000000000000e+00 -3.8061126315530657e+01 -2.8289245542727560e+01 -1.2146707201511877e+02 0 0 0
3917 112 3 0.0000000000000000e+00 -3.4493517471110877e+01 -1.8001146284972901e+01 -1.1892931039491795e+02 0 0 0
4745 136 4 0.0000000000000000e+00 -6.6775252534925158e+01 -1.0476740251818701e+01 -1.1259666509133397e+02 0 0 0
2080 60 2 0.0000000000000000e+00 -4.5131949573744535e+01 -1.3347693519029134e+01 -1.2243606619962590e+02 0 0 0
2081 60 2 0.0000000000000000e+00 -4.3080623721047701e+01 -1.7801440821921847e+01 -1.1347376929976029e+02 0 0 0
4749 136 4 0.0000000000000000e+00 -3.3964979515308805e+01 -7.6114660762165514e+00 -1.2412774346795402e+02 0 0 0
1534 44 2 0.0000000000000000e+00 -1.1756622450332249e+02 9.6900015792378635e+00 -1.1737514062622282e+02 0 0 0
6525 187 4 0.0000000000000000e+00 -1.0331097221346279e+02 3.4431612871929446e-01 -1.2447617985991820e+02 0 0 0
6526 187 4 0.0000000000000000e+00 -9.3319756525456029e+01 -8.3171429363185334e-01 -1.2125589676235384e+02 0 0 0
6528 187 3 0.0000000000000000e+00 -7.9418306974005844e+01 8.8606801262653114e+00 -1.1954103119025919e+02 0 0 0
4746 136 4 0.0000000000000000e+00 -6.0559036965984873e+01 -3.0274575250712479e+00 -1.1387271210704436e+02 0 0 0
5091 146 4 0.0000000000000000e+00 -5.9142950775423053e+01 7.7787246318311265e+00 -1.2020663706521741e+02 0 0 0
4747 136 4 0.0000000000000000e+00 -5.1077650049483729e+01 -3.9303104443021386e+00 -1.1760932374582774e+02 0 0 0
5090 146 4 0.0000000000000000e+00 -4.9693030059754278e+01 4.9225105005711063e+00 -1.2292302221170527e+02 0 0 0
1644 47 2 0.0000000000000000e+00 -4.0811813357731005e+01 4.4284873417639483e+00 -1.1247892780245816e+02 0 0 0
4748 136 4 0.0000000000000000e+00 -4.1837965792583539e+01 -1.6311212601742024e+00 -1.2121200555759167e+02 0 0 0
1645 47 2 0.0000000000000000e+00 -3.4214042653049830e+01 6.6280302715245503e+00 -1.1965361946386724e+02 0 0 0
1533 44 2 0.0000000000000000e+00 -1.2632575450533177e+02 1.0950735746855102e+01 -1.1211511182820662e+02 0 0 0
1535 44 2 0.0000000000000000e+00 -1.0809657906230593e+02 1.2139328892227388e+01 -1.1609845081463804e+02 0 0 0
1536 44 2 0.0000000000000000e+00 -9.8687551706339406e+01 1.5412026112646515e+01 -1.1629368603715115e+02 0 0 0
1537 44 1 0.0000000000000000e+00 -8.9764426805666417e+01 1.5314518119842489e+01 -1.2092281427092027e+02 0 0 0
5093 146 3 0.0000000000000000e+00 -7.3150984797460239e+01 2.1414532278543945e+01 -1.2147493498991589e+02 0 0 0
2831 81 2 0.0000000000000000e+00 -8.2668809922516957e+01 1.9402629376871548e+01 -1.1284405867410210e+02 0 0 0
5092 146 4 0.0000000000000000e+00 -6.6289754238379174e+01 1.4368356181631817e+01 -1.2077785611628325e+02 0 0 0
3911 112 4 0.0000000000000000e+00 -3.0984091423945181e+01 1.5088925396083813e+01 -1.1853040168894104e+02 0 0 0
6520 187 4 0.0000000000000000e+00 -1.3588508264728469e+02 2.4763014919045073e+01 -1.2458604328412284e+02 0 0 0
6519 187 4 0.0000000000000000e+00 -1.3593146669061824e+02 3.0874706566462812e+01 -1.1670279377597002e+02 0 0 0
6503 186 4 0.0000000000000000e+00 -1.1719015496488157e+02 3.0299290912177298e+01 -1.1769026178509679e+02 0 0 0
2921 84 2 0.0000000000000000e+00 -1.0641385840039332e+02 2.4680342526607703e+01 -1.1922810666951693e+02 0 0 0
2919 84 2 0.0000000000000000e+00 -9.9240701459962096e+01 3.3633304004649609e+01 -1.2259785141019681e+02 0 0 0
5095 146 4 0.0000000000000000e+00 -9.0575576573613944e+01 2.8618339924907474e+01 -1.1751486956321982e+02 0 0 0
5094 146 4 0.0000000000000000e+00 -8.0381690369444541e+01 2.7692951953266128e+01 -1.1809275354705879e+02 0 0 0
5115 147 4 0.0000000000000000e+00 -7.6359695526222339e+01 3.5680614063208971e+01 -1.2443554224552078e+02 0 0 0
5133 147 4 0.0000000000000000e+00 -6.0464920079830634e+01 3.2234127438995991e+01 -1.1702176439782173e+02 0 0 0
5132 147 4 0.0000000000000000e+00 -5.2137116514662488e+01 3.2376105040848685e+01 -1.2275622614731208e+02 0 0 0
5082 146 4 0.0000000000000000e+00 -3.1002357712068658e+01 3.6853605731924162e+01 -1.2246338502402578e+02 0 0 0
4762 137 4 0.0000000000000000e+00 -1.2117593276746990e+02 4.6992717304524177e+01 -1.1767715905041224e+02 0 0 0
6505 186 4 0.0000000000000000e+00 -1.1170071720862680e+02 4.4277785525710414e+01 -1.2485865647604854e+02 0 0 0
6506 186 4 0.0000000000000000e+00 -1.0747522604390541e+02 4.9658024674747949e+01 -1.1803786613029629e+02 0 0 0
2917 84 2 0.0000000000000000e+00 -8.6393502488318930e+01 4.7752451659957224e+01 -1.1904699350664302e+02 0 0 0
2918 84 2 0.0000000000000000e+00 -9.4772542861542973e+01 4.1800651197718999e+01 -1.1900514940355346e+02 0 0 0
5116 147 4 0.0000000000000000e+00 -7.7175854859671077e+01 4.1595386586963002e+01 -1.1629565711617451e+02 0 0 0
3383 97 2 0.0000000000000000e+00 -6.1735745114242640e+01 4.2868525966285858e+01 -1.1917190987116429e+02 0 0 0
3382 97 2 0.0000000000000000e+00 -6.2291194254815309e+01 5.0136745569271348e+01 -1.1254818793961448e+02 0 0 0
5103 146 4 0.0000000000000000e+00 -4.9750007183841007e+01 4.3497387403741939e+01 -1.2454511226493227e+02 0 0 0
5104 146 4 0.0000000000000000e+00 -4.7934619732648585e+01 4.7895424528696942e+01 -1.1589277452958278e+02 0 0 0
5081 146 4 0.0000000000000000e+00 -4.0128498888448945e+01 3.9771449108744086e+01 -1.1833703632323108e+02 0 0 0
1732 50 2 0.0000000000000000e+00 -1.1870076987667490e+02 5.6274071607290459e+01 -1.2292460983584920e+02 0 0 0
1733 50 1 0.0000000000000000e+00 -1.2502543040129540e+02 6.1570640697739655e+01 -1.1647829147303210e+02 0 0 0
4763 137 4 0.0000000000000000e+00 -1.1821900463484397e+02 5.5627925579486565e+01 -1.1315694713943586e+02 0 0 0
2518 72 2 0.0000000000000000e+00 -1.0820261414560802e+02 6.2881018815804630e+01 -1.2463592534491794e+02 0 0 0
2915 84 2 0.0000000000000000e+00 -8.5773936926197521e+01 6.3913612161891216e+01 -1.1739774726442548e+02 0 0 0
5904 169 4 0.0000000000000000e+00 -9.7717118461678979e+01 5.7663069727738936e+01 -1.1552752203789106e+02 0 0 0
5905 169 3 0.0000000000000000e+00 -8.8126233627297566e+01 5.5031056156241519e+01 -1.1229744009298405e+02 0 0 0
2916 84 1 0.0000000000000000e+00 -8.6313953516481206e+01 5.6627641408493197e+01 -1.2353069194973962e+02 0 0 0
5906 169 4 0.0000000000000000e+00 -7.8593756272165663e+01 5.5918638141094100e+01 -1.1541561422898891e+02 0 0 0
5907 169 4 0.0000000000000000e+00 -7.2626174198311730e+01 6.1704663340917698e+01 -1.2128638384980121e+02 0 0 0
6476 186 4 0.0000000000000000e+00 -6.4778155958782961e+01 6.4499378360799099e+01 -1.1516316128838062e+02 0 0 0
5105 146 4 0.0000000000000000e+00 -4.6676181835952065e+01 5.6942730767040032e+01 -1.1352283011318093e+02 0 0 0
5129 147 4 0.0000000000000000e+00 -3.9155606920346173e+01 5.2760421866689981e+01 -1.1972959444456917e+02 0 0 0
5128 147 3 0.0000000000000000e+00 -3.5617352808449468e+01 5.7642734598625836e+01 -1.1234442279681936e+02 0 0 0
1367 40 2 0.0000000000000000e+00 -1.0405330353664091e+02 -4.6908930933190177e+01 -1.0750172906830653e+02 0 0 0
2822 81 2 0.0000000000000000e+00 -8.7081075564020821e+01 -4.7725580392113010e+01 -1.1106847592305724e+02 0 0 0
1368 40 2 0.0000000000000000e+00 -1.1071547238416220e+02 -4.4125570514737809e+01 -1.0062196037937133e+02 0 0 0
2823 81 2 0.0000000000000000e+00 -8.2074530832736215e+01 -3.9772886588214369e+01 -1.0845434538297908e+02 0 0 0
4742 136 4 0.0000000000000000e+00 -7.0544126861705067e+01 -3.8453354119568040e+01 -1.0645974964052880e+02 0 0 0
2815 81 2 0.0000000000000000e+00 -6.0216430720713966e+01 -3.6380403091206425e+01 -1.0731922017133536e+02 0 0 0
2814 81 2 0.0000000000000000e+00 -5.0188026470200469e+01 -3.6220205105726251e+01 -1.0597509606063544e+02 0 0 0
6254 179 4 0.0000000000000000e+00 -3.9195802039312127e+01 -3.5283802143579081e+01 -1.0814931793888913e+02 0 0 0
1372 40 2 0.0000000000000000e+00 -1.2820338738150824e+02 -1.9896763723023483e+01 -1.0588916707180745e+02 0 0 0
1370 40 2 0.0000000000000000e+00 -1.1768821566886152e+02 -2.7118032601232805e+01 -1.0033030901814104e+02 0 0 0
6242 179 4 0.0000000000000000e+00 -9.7034086307339493e+01 -3.0872257394320140e+01 -1.0241731665539284e+02 0 0 0
6243 179 4 0.0000000000000000e+00 -9.1188705739857326e+01 -2.9021916820857143e+01 -1.1010271488652067e+02 0 0 0
1617 47 2 0.0000000000000000e+00 -8.8370728431945480e+01 -2.2677066773380488e+01 -9.8101887656093638e+01 0 0 0
2824 81 2 0.0000000000000000e+00 -7.9065502916766278e+01 -3.0973534692474662e+01 -1.0627961758273602e+02 0 0 0
2825 81 1 0.0000000000000000e+00 -7.5122800686319863e+01 -2.1958310699753092e+01 -1.0864952315282027e+02 0 0 0
4744 136 4 0.0000000000000000e+00 -6.6469711360808077e+01 -1.9666729061056163e+01 -1.1145193461302507e+02 0 0 0
4743 136 3 0.0000000000000000e+00 -6.7767829885049395e+01 -3.0025106543602842e+01 -1.1073266316134071e+02 0 0 0
4740 136 4 0.0000000000000000e+00 -6.6379382576277223e+01 -2.4069437354000979e+01 -9.9322738088452937e+01 0 0 0
2093 60 2 0.0000000000000000e+00 -5.7760903029374369e+01 -2.3717347326586946e+01 -1.0700348064703300e+02 0 0 0
2813 81 2 0.0000000000000000e+00 -4.5229264986654826e+01 -3.1460460273537084e+01 -9.8145656672738724e+01 0 0 0
2082 60 2 0.0000000000000000e+00 -3.4927434570266222e+01 -2.1359157733481414e+01 -1.0900088797991391e+02 0 0 0
6255 179 3 0.0000000000000000e+00 -3.3676520350687653e+01 -3.1275017562844852e+01 -1.0118763110241579e+02 0 0 0
1373 40 2 0.0000000000000000e+00 -1.3403137339214149e+02 -1.3686862084827956e+01 -1.0071180823049097e+02 0 0 0
5531 159 4 0.0000000000000000e+00 -1.0277425346996363e+02 -1.2270719120315263e+01 -1.1125137507388496e+02 0 0 0
5532 159 4 0.0000000000000000e+00 -1.0837771804961582e+02 -4.2538623039330288e+00 -1.0743738664701752e+02 0 0 0
1616 47 2 0.0000000000000000e+00 -9.6696599942763982e+01 -1.7493688198845906e+01 -1.0005498913416797e+02 0 0 0
2827 81 2 0.0000000000000000e+00 -8.6929878466988086e+01 -1.0946195683654407e+01 -1.0992422712544418e+02 0 0 0
2826 81 2 0.0000000000000000e+00 -7.7888931988603858e+01 -1.3253437612378891e+01 -1.1165621146500081e+02 0 0 0
1636 47 2 0.0000000000000000e+00 -5.7869310415021481e+01 -1.2556541509754613e+01 -1.0419235716799625e+02 0 0 0
1635 47 1 0.0000000000000000e+00 -4.8365190808904458e+01 -9.2332693634414227e+00 -1.0581025197859144e+02 0 0 0
6262 179 3 0.0000000000000000e+00 -3.8372459029246230e+01 -9.3647385774675875e+00 -1.0993412141474640e+02 0 0 0
6261 179 4 0.0000000000000000e+00 -3.8185774272205478e+01 -1.4559499500393164e+01 -1.0056506524927542e+02 0 0 0
5533 159 4 0.0000000000000000e+00 -1.1194705488370771e+02 4.4936257116893215e+00 -1.0667466997501114e+02 0 0 0
1614 47 1 0.0000000000000000e+00 -1.0583536956246841e+02 3.3648260292782350e-01 -9.8216611027133936e+01 0 0 0
2828 81 2 0.0000000000000000e+00 -9.3128946654911530e+01 -3.6334719227752914e+00 -1.0703072780751275e+02 0 0 0
2829 81 2 0.0000000000000000e+00 -9.4075618393723076e+01 6.4354598161633252e+00 -1.0528392756238073e+02 0 0 0
6530 187 4 0.0000000000000000e+00 -8.3688713361781311e+01 4.9949114098526000e+00 -1.0154591188985614e+02 0 0 0
6529 187 4 0.0000000000000000e+00 -7.9082000146550897e+01 6.6691805487529701e+00 -1.0991586317853576e+02 0 0 0
2834 81 2 0.0000000000000000e+00 -6.5062573089685102e+01 1.2041312669139532e+00 -1.0286733602128363e+02 0 0 0
2833 81 2 0.0000000000000000e+00 -6.7151625485200796e+01 8.8978210509661775e+00 -1.0837945411721545e+02 0 0 0
2835 81 2 0.0000000000000000e+00 -5.4949879531031037e+01 -5.5660497690242661e-01 -1.0052763310316787e+02 0 0 0
1634 47 2 0.0000000000000000e+00 -4.3816780558920449e+01 -6.3405896829655561e-01 -1.0440583436338748e+02 0 0 0
1643 47 2 0.0000000000000000e+00 -5.0330486618207594e+01 6.1155885139082073e+00 -1.0977660123829499e+02 0 0 0
1633 47 2 0.0000000000000000e+00 -4.5158436331712998e+01 8.8221004404689971e+00 -1.0204446638774166e+02 0 0 0
6263 179 4 0.0000000000000000e+00 -3.2036604603519834e+01 -3.0104055313134612e+00 -1.0629496219110651e+02 0 0 0
2220 64 2 0.0000000000000000e+00 -3.4812874767572438e+01 9.4035363406053349e+00 -1.0482675901118407e+02 0 0 0
1532 44 2 0.0000000000000000e+00 -1.3387106271207722e+02 1.5698239694061249e+01 -1.0722069800527338e+02 0 0 0
1531 44 2 0.0000000000000000e+00 -1.3961646739911902e+02 2.1392002989638524e+01 -1.0190529507129341e+02 0 0 0
5535 159 4 0.0000000000000000e+00 -1.2307334637340287e+02 1.7701117096011021e+01 -1.0337478617520767e+02 0 0 0
5534 159 3 0.0000000000000000e+00 -1.1506494705232195e+02 1.4485988501303824e+01 -1.0778966962758696e+02 0 0 0
1613 47 2 0.0000000000000000e+00 -1.0276381367430460e+02 9.8261899607124494e+00 -9.9646471261563960e+01 0 0 0
2923 84 1 0.0000000000000000e+00 -1.1134298837432090e+02 2.1889486367006366e+01 -1.0040122136036895e+02 0 0 0
1612 47 2 0.0000000000000000e+00 -1.0045601943234794e+02 1.7860619510857347e+01 -1.0581874536815636e+02 0 0 0
2830 81 2 0.0000000000000000e+00 -9.1420059102436099e+01 1.4934156745700140e+01 -1.0987604581729323e+02 0 0 0
2527 73 2 0.0000000000000000e+00 -9.0884883667930524e+01 2.0548465240707124e+01 -9.9881483016669989e+01 0 0 0
2832 81 1 0.0000000000000000e+00 -7.3182061012193572e+01 1.6127569268599135e+01 -1.1108379099763287e+02 0 0 0
1642 47 1 0.0000000000000000e+00 -5.8265850809669772e+01 1.1524635520432838e+01 -1.0619692861314873e+02 0 0 0
1641 47 2 0.0000000000000000e+00 -6.5310069940136486e+01 1.1057297131149792e+01 -9.8429143850257901e+01 0 0 0
5135 147 3 0.0000000000000000e+00 -6.4733431510942495e+01 2.0944622489653280e+01 -1.0293919395574960e+02 0 0 0
2224 64 2 0.0000000000000000e+00 -5.0809903479620743e+01 2.3444072118878253e+01 -9.8085468315786073e+01 0 0 0
2221 64 2 0.0000000000000000e+00 -3.4900018098191417e+01 1.8159168201269527e+01 -1.1030647021729405e+02 0 0 0
666 20 2 0.0000000000000000e+00 -3.8200405403379555e+01 2.1720742881687638e+01 -9.9728307231245978e+01 0 0 0
6517 187 4 0.0000000000000000e+00 -1.4483407556258058e+02 3.3533583754265130e+01 -9.9203561767975444e+01 0 0 0
6518 187 4 0.0000000000000000e+00 -1.3891119813809198e+02 3.0581821831553217e+01 -1.0722510123211946e+02 0 0 0
6501 186 4 0.0000000000000000e+00 -1.2026087667687615e+02 2.7882123271563401e+01 -1.0229684788951079e+02 0 0 0
6502 186 4 0.0000000000000000e+00 -1.2426735299290223e+02 3.0313497587865086e+01 -1.1078716279877258e+02 0 0 0
926 27 2 0.0000000000000000e+00 -1.0299326278715840e+02 3.5779319446860811e+01 -1.1103161745478556e+02 0 0 0
2922 84 2 0.0000000000000000e+00 -1.0805639669674486e+02 2.6611765555434147e+01 -1.0890824740252850e+02 0 0 0
2529 73 2 0.0000000000000000e+00 -1.0586709851678700e+02 2.9943567089160464e+01 -9.8080340238543940e+01 0 0 0
1611 47 2 0.0000000000000000e+00 -9.7879739921139546e+01 2.5489455170979216e+01 -1.1152910080112355e+02 0 0 0
925 27 2 0.0000000000000000e+00 -9.2886838010371392e+01 3.6687691539050505e+01 -1.0910611159162302e+02 0 0 0
2528 73 2 0.0000000000000000e+00 -9.6443584869486202e+01 2.9193799122376795e+01 -9.9783272335597815e+01 0 0 0
5561 159 4 0.0000000000000000e+00 -7.1134918078700906e+01 3.0815450801526325e+01 -9.9233165056886037e+01 0 0 0
5134 147 4 0.0000000000000000e+00 -6.0951345249384303e+01 2.9172764897830127e+01 -1.0757149810762849e+02 0 0 0
2223 64 1 0.0000000000000000e+00 -4.8930624893870487e+01 2.8321854066684800e+01 -1.0655733946613434e+02 0 0 0
2222 64 2 0.0000000000000000e+00 -4.2530456425719613e+01 2.3835309039224349e+01 -1.1171864527122376e+02 0 0 0
5355 153 4 0.0000000000000000e+00 -4.2399662426808590e+01 3.1698978010750963e+01 -9.9758757828228681e+01 0 0 0
2206 64 2 0.0000000000000000e+00 -3.3273537894595655e+01 3.6234129186362843e+01 -1.1093249700833130e+02 0 0 0
1735 50 2 0.0000000000000000e+00 -1.3431541965126479e+02 4.9652067104877787e+01 -1.0425004655452277e+02 0 0 0
1736 50 2 0.0000000000000000e+00 -1.3735009413796024e+02 4.0769306298090640e+01 -9.9629060170461130e+01 0 0 0
929 27 2 0.0000000000000000e+00 -1.1495203170664043e+02 4.9602732409554129e+01 -1.0007092432316556e+02 0 0 0
927 27 2 0.0000000000000000e+00 -1.1228846803798190e+02 3.9167172964507017e+01 -1.0907347994877576e+02 0 0 0
6507 186 3 0.0000000000000000e+00 -1.0054840401877877e+02 4.5760948142695440e+01 -1.1119240714466613e+02 0 0 0
928 27 1 0.0000000000000000e+00 -1.1167750093571752e+02 4.8432409218037073e+01 -1.0921721690340674e+02 0 0 0
6508 186 4 0.0000000000000000e+00 -9.9777784628245769e+01 4.3852435602358419e+01 -1.0169357894845355e+02 0 0 0
924 27 2 0.0000000000000000e+00 -8.5767869951766812e+01 3.9135891356293307e+01 -1.0234281107696799e+02 0 0 0