LAMMPS data file via write_data, version 5 Jun 2019, timestep = 480000000

7000 atoms
4 atom types
7279 bonds
3 bond types
6600 angles
2 angle types

-5.0000000000000000e+02 5.0000000000000000e+02 xlo xhi
-5.0000000000000000e+02 5.0000000000000000e+02 ylo yhi
-5.0000000000000000e+02 5.0000000000000000e+02 zlo zhi

Masses

1 1000
2 1000
3 1000
4 1000

Pair Coeffs # lj/cut

1 0.296 10
2 0.296 10
3 0.296 10
4 0.296 10

Angle Coeffs # cosine

1 2
2 2

Atoms # full

483 14 2 0.0000000000000000e+00 -3.8741215333379444e+01 3.4426947499508152e+01 -1.9985654129209863e+02 0 0 0
6517 187 4 0.0000000000000000e+00 -2.7858205390232818e+01 2.1559827053500950e+01 -1.8163033265096735e+02 0 0 0
6518 187 4 0.0000000000000000e+00 -1.7926181149063016e+01 1.9955990388555890e+01 -1.8328844837538932e+02 0 0 0
6519 187 4 0.0000000000000000e+00 -9.9109791050257225e+00 1.4429659883281650e+01 -1.8315240567891573e+02 0 0 0
484 14 2 0.0000000000000000e+00 -3.9777276227660387e+01 3.2792995661301113e+01 -1.8963505373252795e+02 0 0 0
2219 64 2 0.0000000000000000e+00 -4.9579413508606960e+00 -2.1901032833610998e+01 -1.7121952907809455e+02 0 0 0
2220 64 2 0.0000000000000000e+00 -1.2416332750036906e+01 -1.6514596645369242e+01 -1.6957336468045520e+02 0 0 0
2221 64 2 0.0000000000000000e+00 -1.7147053346970086e+01 -8.5260496822088339e+00 -1.7343539798984324e+02 0 0 0
2222 64 2 0.0000000000000000e+00 -1.2319293198532952e+01 2.4624523953728072e-01 -1.7260850891030705e+02 0 0 0
2075 60 2 0.0000000000000000e+00 -3.5204305992841917e+01 1.0743481968111425e+01 -1.7270076299061509e+02 0 0 0
2076 60 1 0.0000000000000000e+00 -2.8412599618325597e+01 4.1315086111146364e+00 -1.6800688823511808e+02 0 0 0
6520 187 4 0.0000000000000000e+00 -5.0903448463409919e+00 8.6194653840389712e+00 -1.7629923431453469e+02 0 0 0
6516 187 4 0.0000000000000000e+00 -3.6161606621176944e+01 2.5777971092766805e+01 -1.7869869964435270e+02 0 0 0
6515 187 4 0.0000000000000000e+00 -4.3807388902695394e+01 2.6325596961296494e+01 -1.7149704712772899e+02 0 0 0
2074 60 2 0.0000000000000000e+00 -4.3862578343364248e+01 1.6242440651062992e+01 -1.7114385686898592e+02 0 0 0
5538 159 4 0.0000000000000000e+00 -2.3960418492644482e+01 1.7357577354464837e+01 -1.7025532734072993e+02 0 0 0
5537 159 4 0.0000000000000000e+00 -1.4164023479774913e+01 1.6998062753171617e+01 -1.7016378421519764e+02 0 0 0
486 14 2 0.0000000000000000e+00 -4.2913730246324398e+01 3.6735402501299589e+01 -1.7176521521131679e+02 0 0 0
485 14 2 0.0000000000000000e+00 -4.3522560188608082e+01 3.3911015995537184e+01 -1.8076998974454693e+02 0 0 0
3640 104 4 0.0000000000000000e+00 -3.3418873052101929e+01 3.1943548466254146e+01 -1.6907928808014560e+02 0 0 0
476 14 2 0.0000000000000000e+00 -2.4972186853926392e+01 2.8575231815844713e+01 -1.7429340179987335e+02 0 0 0
477 14 2 0.0000000000000000e+00 -2.9413646346356568e+01 3.5244329178296631e+01 -1.8105844020690688e+02 0 0 0
475 14 2 0.0000000000000000e+00 -1.5043196554737484e+01 2.9510910669984398e+01 -1.7247792665923231e+02 0 0 0
1366 40 2 0.0000000000000000e+00 -2.2557418426321693e+01 -7.9674880289064021e+01 -1.5426985547002630e+02 0 0 0
1370 40 2 0.0000000000000000e+00 -2.3546850276424085e+01 -4.4079672733458608e+01 -1.5437433248614440e+02 0 0 0
5551 159 4 0.0000000000000000e+00 -5.5785449827362186e+01 -2.6954581351233504e+01 -1.5983210731961734e+02 0 0 0
1372 40 2 0.0000000000000000e+00 -3.3370686084812995e+01 -2.9292707441736045e+01 -1.6113935724276860e+02 0 0 0
1371 40 2 0.0000000000000000e+00 -2.5102375548270782e+01 -3.6283629311984321e+01 -1.6071512721415539e+02 0 0 0
2080 60 2 0.0000000000000000e+00 -1.8860218468966334e+01 -2.9564291327236397e+01 -1.5356436328302232e+02 0 0 0
5552 159 4 0.0000000000000000e+00 -5.0292898010811683e+01 -1.8989766590314726e+01 -1.6182463087254951e+02 0 0 0
1373 40 2 0.0000000000000000e+00 -3.9069982615088456e+01 -2.2758412656514938e+01 -1.5565820036195888e+02 0 0 0
2079 60 2 0.0000000000000000e+00 -2.1330953663395309e+01 -2.2663790184343373e+01 -1.6049255492191466e+02 0 0 0
2078 60 2 0.0000000000000000e+00 -2.1813231608135133e+01 -1.3521567439824576e+01 -1.6368946351388340e+02 0 0 0
5553 159 4 0.0000000000000000e+00 -4.9766951853246589e+01 -9.2733807256016156e+00 -1.6293957468881408e+02 0 0 0
5554 159 4 0.0000000000000000e+00 -4.6633897702053403e+01 6.5469541406095066e-02 -1.6273014006481719e+02 0 0 0
5542 159 4 0.0000000000000000e+00 -3.3135853772462774e+01 -1.1154795371325188e+01 -1.5866320627684229e+02 0 0 0
5541 159 3 0.0000000000000000e+00 -3.6059289820431765e+01 -3.6125982795586076e+00 -1.6449393843267003e+02 0 0 0
2077 60 2 0.0000000000000000e+00 -2.3473181203981667e+01 -4.3497950981530202e+00 -1.6566829200141279e+02 0 0 0
5555 159 3 0.0000000000000000e+00 -4.6666294289534825e+01 7.3807369803996785e+00 -1.5657123599333926e+02 0 0 0
5540 159 4 0.0000000000000000e+00 -3.7044446297841262e+01 6.5054801649530578e+00 -1.6384602706483918e+02 0 0 0
2531 73 1 0.0000000000000000e+00 -3.5644791108198227e+01 8.2219576277644109e+00 -1.5491458411593953e+02 0 0 0
911 27 2 0.0000000000000000e+00 -2.3655674993151091e+01 5.2412681279849274e+00 -1.5349961207547750e+02 0 0 0
2224 64 2 0.0000000000000000e+00 -1.5054634368254705e+01 9.0846847013737153e-01 -1.5909395450205093e+02 0 0 0
2223 64 1 0.0000000000000000e+00 -1.7183753401860809e+01 6.7532490830267777e+00 -1.6664885594125801e+02 0 0 0
3637 104 3 0.0000000000000000e+00 -1.6522608856734823e+01 1.2927107640947259e+01 -1.5688606271398521e+02 0 0 0
2215 64 2 0.0000000000000000e+00 -4.6932475982609487e+00 3.3452534679347501e+00 -1.5970195875884801e+02 0 0 0
2071 60 2 0.0000000000000000e+00 -6.4056297480123945e+01 2.6811930640542929e+01 -1.5634677707885106e+02 0 0 0
2073 60 2 0.0000000000000000e+00 -4.7433107250064651e+01 2.0453257177382042e+01 -1.6244124097781247e+02 0 0 0
2072 60 2 0.0000000000000000e+00 -5.5544652938256824e+01 2.1768454590489405e+01 -1.5816723268672837e+02 0 0 0
2532 73 2 0.0000000000000000e+00 -3.9120394314696519e+01 1.6884626984873634e+01 -1.5744857074298298e+02 0 0 0
5539 159 4 0.0000000000000000e+00 -3.0548812838865359e+01 1.3963786513559672e+01 -1.6443264328539536e+02 0 0 0
3639 104 4 0.0000000000000000e+00 -2.9645341430802510e+01 2.5243460952394315e+01 -1.6273712535111193e+02 0 0 0
3638 104 4 0.0000000000000000e+00 -2.0695214429744027e+01 2.1027372537744224e+01 -1.6145313506722275e+02 0 0 0
5536 159 4 0.0000000000000000e+00 -5.2304021753776109e+00 1.6659115396878683e+01 -1.6514197849055105e+02 0 0 0
5535 159 4 0.0000000000000000e+00 -7.2538439660255865e+00 2.4005412632283740e+01 -1.5813115185062748e+02 0 0 0
2070 60 2 0.0000000000000000e+00 -7.0584094175148053e+01 3.3510169092090138e+01 -1.5384749494447379e+02 0 0 0
6513 187 4 0.0000000000000000e+00 -4.9062944399024467e+01 3.0767965719616146e+01 -1.5450912799343763e+02 0 0 0
6514 187 3 0.0000000000000000e+00 -4.7589954619490840e+01 3.1997162016143523e+01 -1.6416138315230322e+02 0 0 0
2923 84 1 0.0000000000000000e+00 -5.4292907847648891e+01 3.8930046571579489e+01 -1.5585872795474478e+02 0 0 0
2533 73 2 0.0000000000000000e+00 -3.8070512059444916e+01 2.7579045581599427e+01 -1.5821933583208482e+02 0 0 0
2534 73 2 0.0000000000000000e+00 -3.7106190716748493e+01 3.7896998595032841e+01 -1.5819880595419133e+02 0 0 0
5907 169 4 0.0000000000000000e+00 -2.3620215612308755e+01 3.7670698260722538e+01 -1.6673388553641780e+02 0 0 0
5906 169 4 0.0000000000000000e+00 -2.1486512548097206e+01 3.6833443121289648e+01 -1.5683856700213255e+02 0 0 0
474 14 2 0.0000000000000000e+00 -1.3047669076325542e+01 3.7576420209704644e+01 -1.6655956871953364e+02 0 0 0
1367 40 2 0.0000000000000000e+00 -2.6854321854072619e+01 -7.0819950117025243e+01 -1.5225304618042946e+02 0 0 0
6253 179 4 0.0000000000000000e+00 -2.0794267627247461e+01 -7.4986652481523635e+01 -1.4469696124727730e+02 0 0 0
6254 179 4 0.0000000000000000e+00 -1.1855471564318940e+01 -7.0787368514902155e+01 -1.4689707889822489e+02 0 0 0
2521 73 2 0.0000000000000000e+00 -5.0031375624915995e+01 -6.2754396710002680e+01 -1.4438863483062767e+02 0 0 0
2522 73 2 0.0000000000000000e+00 -4.3326859168742835e+01 -5.5535669961491827e+01 -1.4158341581110810e+02 0 0 0
1368 40 2 0.0000000000000000e+00 -2.3143480717185263e+01 -6.1805019965040714e+01 -1.5003161410316969e+02 0 0 0
6242 179 4 0.0000000000000000e+00 -2.0241035822170613e+01 -6.2411719873695333e+01 -1.3967401382629953e+02 0 0 0
6255 179 3 0.0000000000000000e+00 -5.7021540917823526e+00 -6.2330632623895340e+01 -1.4802601007837771e+02 0 0 0
1369 40 1 0.0000000000000000e+00 -2.0309370840912230e+01 -5.2132935246544584e+01 -1.4900599002973271e+02 0 0 0
6240 179 4 0.0000000000000000e+00 -2.6446196867281362e+01 -4.5235031794080342e+01 -1.4281865634943287e+02 0 0 0
2083 60 1 0.0000000000000000e+00 -5.8370737829551729e+00 -5.3034040648991621e+01 -1.5334406035315050e+02 0 0 0
2082 60 2 0.0000000000000000e+00 -1.1589548147811474e+01 -4.5720444037650161e+01 -1.4994698078595650e+02 0 0 0
2822 81 2 0.0000000000000000e+00 -1.7018715091929121e+01 -4.4961650974506234e+01 -1.3993842422734164e+02 0 0 0
5550 159 4 0.0000000000000000e+00 -5.4683392041287469e+01 -3.1724991929600794e+01 -1.5044918935660124e+02 0 0 0
5549 159 4 0.0000000000000000e+00 -5.4456745634281667e+01 -3.5553711886303610e+01 -1.4137590052452165e+02 0 0 0
2526 73 2 0.0000000000000000e+00 -3.4214431445943411e+01 -3.2482949408900339e+01 -1.4163279010157257e+02 0 0 0
6239 179 4 0.0000000000000000e+00 -2.3110083670562751e+01 -3.6294543465833890e+01 -1.4486051390306847e+02 0 0 0
2081 60 2 0.0000000000000000e+00 -1.2535762041103462e+01 -3.5831588015190370e+01 -1.4905189797643590e+02 0 0 0
1374 40 2 0.0000000000000000e+00 -4.7450090117349184e+01 -2.2987473098323868e+01 -1.5023153114213571e+02 0 0 0
1375 40 2 0.0000000000000000e+00 -5.2548591332926456e+01 -2.4028236511695514e+01 -1.4209694651030287e+02 0 0 0
2528 73 2 0.0000000000000000e+00 -4.2568208486172196e+01 -1.4770854470587215e+01 -1.4310597508422961e+02 0 0 0
2527 73 2 0.0000000000000000e+00 -3.8915227468782206e+01 -2.4573028726797645e+01 -1.4221892965860363e+02 0 0 0
5544 159 4 0.0000000000000000e+00 -2.6892113991258316e+01 -2.5183662621563478e+01 -1.4475817220668992e+02 0 0 0
5543 159 4 0.0000000000000000e+00 -3.0095203660099319e+01 -1.9497128082911807e+01 -1.5281933219012413e+02 0 0 0
5145 147 4 0.0000000000000000e+00 -2.0098028934186317e+01 -1.7162465875995323e+01 -1.4718655371771689e+02 0 0 0
6531 187 4 0.0000000000000000e+00 -8.2062844897763405e+00 -2.1226983098454770e+01 -1.4433011659976589e+02 0 0 0
3741 107 4 0.0000000000000000e+00 -7.6307229517437236e+01 -1.0467251589603704e+01 -1.4196715750634581e+02 0 0 0
3742 107 3 0.0000000000000000e+00 -6.8538190952330666e+01 -4.2169568649682319e+00 -1.4145512144020128e+02 0 0 0
1524 44 2 0.0000000000000000e+00 -5.3312890852643982e+01 -9.8327482562251376e+00 -1.4741574670453596e+02 0 0 0
1525 44 2 0.0000000000000000e+00 -4.8446350614240728e+01 -1.3191934391003293e+00 -1.4748485836094693e+02 0 0 0
2529 73 2 0.0000000000000000e+00 -3.8537168545193921e+01 -9.5328964821377795e+00 -1.5039266104348914e+02 0 0 0
2530 73 2 0.0000000000000000e+00 -3.3198842924584504e+01 -1.0536280133180007e+00 -1.5160312191936993e+02 0 0 0
5144 147 4 0.0000000000000000e+00 -2.3012959819365069e+01 -9.7164117277632034e+00 -1.4173945682119808e+02 0 0 0
2226 64 2 0.0000000000000000e+00 -7.8925711608089140e+00 -1.0308978873966719e+01 -1.4503764660603301e+02 0 0 0
2225 64 2 0.0000000000000000e+00 -1.1815588000404967e+01 -2.7794811191921309e+00 -1.5057164042167943e+02 0 0 0
913 27 2 0.0000000000000000e+00 -1.4043233327905511e+01 -1.2953297625999776e+00 -1.3982371954547179e+02 0 0 0
2543 73 2 0.0000000000000000e+00 -6.1466901334682277e+01 1.1584516897589481e+01 -1.4200826290496678e+02 0 0 0
5556 159 4 0.0000000000000000e+00 -4.7856228680020145e+01 1.1407736626131092e+01 -1.4763656173305506e+02 0 0 0
3744 107 4 0.0000000000000000e+00 -5.3690374642884393e+01 3.1820365167844340e+00 -1.3956676697542500e+02 0 0 0
1526 44 2 0.0000000000000000e+00 -3.9501166910410596e+01 2.7494076499917810e+00 -1.4503723208804260e+02 0 0 0
1527 44 2 0.0000000000000000e+00 -3.3445579632403323e+01 1.1060033032085247e+01 -1.4533721642355050e+02 0 0 0
912 27 2 0.0000000000000000e+00 -2.2382354957481148e+01 2.1165574436535994e+00 -1.4429173348385157e+02 0 0 0
3636 104 4 0.0000000000000000e+00 -1.7685456307229103e+01 1.2261548235866242e+01 -1.4710706441227913e+02 0 0 0
2213 64 2 0.0000000000000000e+00 -6.3799551515133075e+00 1.2279664046487472e+01 -1.4259261244319012e+02 0 0 0
2214 64 2 0.0000000000000000e+00 -4.9530575018172565e+00 8.9592347886115142e+00 -1.5170986378635538e+02 0 0 0
2542 73 2 0.0000000000000000e+00 -5.6534261012328450e+01 1.9193686233854294e+01 -1.4529646559157121e+02 0 0 0
2541 73 2 0.0000000000000000e+00 -4.7998920147069356e+01 2.4118763384910721e+01 -1.4655159092316151e+02 0 0 0
5557 159 4 0.0000000000000000e+00 -4.1319339469715231e+01 1.6114065694720054e+01 -1.4244342115801416e+02 0 0 0
1529 44 2 0.0000000000000000e+00 -1.8300821995735880e+01 2.1572023610397320e+01 -1.4962227789276434e+02 0 0 0
1528 44 2 0.0000000000000000e+00 -2.7401435984929734e+01 1.7553803767844087e+01 -1.4987406748465685e+02 0 0 0
1530 44 1 0.0000000000000000e+00 -8.9461360920489490e+00 2.2466886607688263e+01 -1.4588646953030121e+02 0 0 0
2069 60 1 0.0000000000000000e+00 -6.8697421621572104e+01 3.9692066860206367e+01 -1.4549536460902172e+02 0 0 0
6512 187 4 0.0000000000000000e+00 -5.5802001123606772e+01 3.3419136552016134e+01 -1.4766130268209062e+02 0 0 0
2924 84 2 0.0000000000000000e+00 -4.9142254792542793e+01 4.0789838169490423e+01 -1.4754898873928084e+02 0 0 0
2540 73 2 0.0000000000000000e+00 -4.0234627231946824e+01 2.9221101578155963e+01 -1.4414183925154143e+02 0 0 0
2539 73 2 0.0000000000000000e+00 -3.8054076505617317e+01 3.8926123573419616e+01 -1.4505865191141237e+02 0 0 0
5905 169 3 0.0000000000000000e+00 -2.6423033558930204e+01 3.9881562197580607e+01 -1.4812676051627682e+02 0 0 0
5534 159 3 0.0000000000000000e+00 -8.4103979928958186e+00 3.1650115630680553e+01 -1.5250088854974234e+02 0 0 0
5533 159 4 0.0000000000000000e+00 -1.4849933637812198e+01 3.4142009835937870e+01 -1.4504406184254242e+02 0 0 0
4847 139 4 0.0000000000000000e+00 -3.5839726605435473e+01 -1.0995776099697396e+02 -1.2788078222062451e+02 0 0 0
4846 139 4 0.0000000000000000e+00 -2.9579637528635985e+01 -1.0251521275182409e+02 -1.2928023946061745e+02 0 0 0
4845 139 4 0.0000000000000000e+00 -2.2636598818639829e+01 -9.6947443001178129e+01 -1.2650759697137381e+02 0 0 0
6335 181 4 0.0000000000000000e+00 -4.6758919322098329e+01 -8.1528837022735530e+01 -1.3540766875267678e+02 0 0 0
6251 179 4 0.0000000000000000e+00 -2.6545269886591321e+01 -8.6727505901204751e+01 -1.3649371160823875e+02 0 0 0
6250 179 4 0.0000000000000000e+00 -1.7914143422211872e+01 -8.6767727276671891e+01 -1.3117851890879820e+02 0 0 0
6249 179 4 0.0000000000000000e+00 -9.3364157687533336e+00 -9.1400194362367856e+01 -1.3002630656638885e+02 0 0 0
6334 181 4 0.0000000000000000e+00 -4.1307352427690553e+01 -7.3644738506741788e+01 -1.3146150554654724e+02 0 0 0
6333 181 4 0.0000000000000000e+00 -3.4067162916412677e+01 -6.7775473496794916e+01 -1.2880687058232530e+02 0 0 0
6252 179 4 0.0000000000000000e+00 -2.8356714447053559e+01 -7.7506673595207261e+01 -1.3894435399929267e+02 0 0 0
6244 179 4 0.0000000000000000e+00 -1.7666998319785481e+01 -7.7467939876903245e+01 -1.2665648813878421e+02 0 0 0
6243 179 4 0.0000000000000000e+00 -1.8708786790315269e+01 -6.9984472857661004e+01 -1.3329029167778177e+02 0 0 0
6328 181 4 0.0000000000000000e+00 -5.9403666934024342e+00 -8.0368253032382370e+01 -1.2623199410700461e+02 0 0 0
6241 179 3 0.0000000000000000e+00 -2.5382253892658657e+01 -5.4042237532436772e+01 -1.3873865810732744e+02 0 0 0
6332 181 3 0.0000000000000000e+00 -2.7693157710992054e+01 -5.9765777916832370e+01 -1.3048121604479388e+02 0 0 0
6331 181 4 0.0000000000000000e+00 -1.7854994116530420e+01 -5.7566501990069732e+01 -1.2881566935464170e+02 0 0 0
6330 181 4 0.0000000000000000e+00 -9.0454484207308621e+00 -6.2153156527706741e+01 -1.2712129757273262e+02 0 0 0
2820 81 2 0.0000000000000000e+00 -4.5766729472606658e+00 -6.0593592088509119e+01 -1.3692620008968555e+02 0 0 0
2523 73 2 0.0000000000000000e+00 -3.8102146194875338e+01 -5.1075605091861348e+01 -1.3470686972204834e+02 0 0 0
2525 73 2 0.0000000000000000e+00 -3.4754981990957916e+01 -4.1399133911814076e+01 -1.3641990204320598e+02 0 0 0
2524 73 1 0.0000000000000000e+00 -3.0206629361259360e+01 -4.8604138869973802e+01 -1.3083579270187863e+02 0 0 0
2823 81 2 0.0000000000000000e+00 -2.2581650906143341e+01 -4.0241058694172501e+01 -1.3353120577602530e+02 0 0 0
2821 81 2 0.0000000000000000e+00 -1.1847996118288592e+01 -5.3351073923814099e+01 -1.3890796679018493e+02 0 0 0
5548 159 3 0.0000000000000000e+00 -4.8350383760655767e+01 -3.0924963002835071e+01 -1.3468301472155835e+02 0 0 0
4181 120 4 0.0000000000000000e+00 -4.3677744881074496e+01 -3.8981360046988073e+01 -1.2953332135908585e+02 0 0 0
4182 120 4 0.0000000000000000e+00 -3.4608049470125088e+01 -3.7240016819852997e+01 -1.2765925539450576e+02 0 0 0
6237 179 4 0.0000000000000000e+00 -1.1933084552734378e+01 -3.4520088811829140e+01 -1.2927726653700401e+02 0 0 0
6238 179 4 0.0000000000000000e+00 -1.6361123265034053e+01 -3.3159039921918634e+01 -1.3809517111026119e+02 0 0 0
1378 40 2 0.0000000000000000e+00 -7.0880199403728867e+01 -1.6451127263662237e+01 -1.3008055348972977e+02 0 0 0
1377 40 2 0.0000000000000000e+00 -6.5578048139036540e+01 -2.4732032432291525e+01 -1.3228752468920155e+02 0 0 0
1376 40 1 0.0000000000000000e+00 -5.5981868988671359e+01 -2.3324539022485254e+01 -1.3332599080875215e+02 0 0 0
1521 44 2 0.0000000000000000e+00 -4.6029908932205458e+01 -1.5410907893415834e+01 -1.2610022664609428e+02 0 0 0
5547 159 4 0.0000000000000000e+00 -4.0727492831045531e+01 -2.6035668200337231e+01 -1.2939158525435465e+02 0 0 0
5546 159 4 0.0000000000000000e+00 -3.1424054937317027e+01 -2.3164629921486380e+01 -1.2612975806507369e+02 0 0 0
5545 159 4 0.0000000000000000e+00 -2.8950206581854154e+01 -2.2078462409133685e+01 -1.3575128817654669e+02 0 0 0
6533 187 4 0.0000000000000000e+00 -2.0791881996680964e+01 -2.4827146624399415e+01 -1.3047057052259851e+02 0 0 0
6532 187 4 0.0000000000000000e+00 -1.2604695222777250e+01 -2.1767663743943103e+01 -1.3566683419658207e+02 0 0 0
3736 107 4 0.0000000000000000e+00 -1.0302743079574023e+02 -6.0702801812547360e+00 -1.2979169511555665e+02 0 0 0
3739 107 4 0.0000000000000000e+00 -8.8504507391592583e+01 -4.6673341901949188e+00 -1.3012757866054201e+02 0 0 0
3740 107 4 0.0000000000000000e+00 -8.4182129097439926e+01 -1.1258475349490791e+01 -1.3576119596958324e+02 0 0 0
2546 73 2 0.0000000000000000e+00 -7.7009517985098697e+01 -6.3578734478481502e+00 -1.2897713141171664e+02 0 0 0
5526 158 4 0.0000000000000000e+00 -6.2912252918044778e+01 -3.0414305599349221e+00 -1.3049018759060894e+02 0 0 0
3743 107 4 0.0000000000000000e+00 -5.8926619484721790e+01 -5.1074218214253078e+00 -1.3912005026279400e+02 0 0 0
1523 44 1 0.0000000000000000e+00 -5.0323841946897723e+01 -9.7862020917801118e+00 -1.3802290711526584e+02 0 0 0
5527 158 3 0.0000000000000000e+00 -5.5721915246682144e+01 -9.5032155982511917e+00 -1.2830626595936934e+02 0 0 0
1522 44 2 0.0000000000000000e+00 -4.1853788088648955e+01 -8.9931158337918298e+00 -1.3254916665466649e+02 0 0 0
5143 147 4 0.0000000000000000e+00 -2.1297637522416338e+01 -6.4425565716237045e+00 -1.3262828806649509e+02 0 0 0
914 27 1 0.0000000000000000e+00 -8.1339883825536958e+00 -5.7039684237897115e+00 -1.3288460104199822e+02 0 0 0
915 27 2 0.0000000000000000e+00 -3.8772668053657768e+00 -1.2307726044739232e+01 -1.2633341182750719e+02 0 0 0
2937 84 1 0.0000000000000000e+00 -1.0232349809608182e+02 1.0784797213289091e+01 -1.3148034004126421e+02 0 0 0
2938 84 2 0.0000000000000000e+00 -1.0946615781132022e+02 3.4135442383083077e+00 -1.3228857403934299e+02 0 0 0
3734 107 4 0.0000000000000000e+00 -9.2855504657782859e+01 8.3373526110008847e+00 -1.3589891352864734e+02 0 0 0
3735 107 3 0.0000000000000000e+00 -9.8085958709083499e+01 8.0167275775809521e-01 -1.3597554477823866e+02 0 0 0
2545 73 1 0.0000000000000000e+00 -7.6080476796043328e+01 1.2669530614303322e+00 -1.3477293310942849e+02 0 0 0
3733 107 4 0.0000000000000000e+00 -8.3765017423045123e+01 9.8089315792286431e+00 -1.3311633452246096e+02 0 0 0
2544 73 2 0.0000000000000000e+00 -6.9953645712279865e+01 8.1193268045676170e+00 -1.3768963291708803e+02 0 0 0
3745 107 4 0.0000000000000000e+00 -4.8146972032489828e+01 1.1342130556817308e+01 -1.3646565685044519e+02 0 0 0
5558 159 4 0.0000000000000000e+00 -3.4841261176414839e+01 1.2274409924024877e+01 -1.3575811579403427e+02 0 0 0
2211 64 2 0.0000000000000000e+00 -1.7693297204930690e+01 5.3175195630814827e+00 -1.3211875696071758e+02 0 0 0
2210 64 2 0.0000000000000000e+00 -2.6536527262959428e+01 6.7954732626181604e+00 -1.2756752083789527e+02 0 0 0
2212 64 2 0.0000000000000000e+00 -1.0612426924370823e+01 1.1578020038918281e+01 -1.3408059649636019e+02 0 0 0
2936 84 2 0.0000000000000000e+00 -9.5807391395808821e+01 1.8320399759192295e+01 -1.3060491889802415e+02 0 0 0
2935 84 2 0.0000000000000000e+00 -8.7258630784778177e+01 2.2188371508531564e+01 -1.3036326570845497e+02 0 0 0
2934 84 2 0.0000000000000000e+00 -7.7153520044995048e+01 2.2392175175392921e+01 -1.3146974255994098e+02 0 0 0
2933 84 2 0.0000000000000000e+00 -6.8321090038344664e+01 2.7209116408373315e+01 -1.3201733775354361e+02 0 0 0
6540 187 4 0.0000000000000000e+00 -5.9171223371800274e+01 1.9231126832556519e+01 -1.2638422392786174e+02 0 0 0
6541 187 4 0.0000000000000000e+00 -5.1533724385081385e+01 2.4789752074637025e+01 -1.3000202439597223e+02 0 0 0
6542 187 3 0.0000000000000000e+00 -4.2582706900534532e+01 2.2526904754227338e+01 -1.3319788871095784e+02 0 0 0
6543 187 4 0.0000000000000000e+00 -3.3475841035797409e+01 2.4445820066001254e+01 -1.3719788224253156e+02 0 0 0
5559 159 4 0.0000000000000000e+00 -3.6957302476631405e+01 1.6595617576623191e+01 -1.2713117641837168e+02 0 0 0
3635 104 4 0.0000000000000000e+00 -2.2356100560730273e+01 1.4242826918517396e+01 -1.3870014624240713e+02 0 0 0
3634 104 4 0.0000000000000000e+00 -2.7603570333084292e+01 1.8658150938428118e+01 -1.3177851896618785e+02 0 0 0
3633 104 4 0.0000000000000000e+00 -1.9754762749056738e+01 2.3600324485819723e+01 -1.2933793365175953e+02 0 0 0
5111 147 4 0.0000000000000000e+00 -1.8710103066736590e+01 1.4026281050348558e+01 -1.2642250237983059e+02 0 0 0
6545 187 4 0.0000000000000000e+00 -1.4022915387295361e+01 2.6809684112933120e+01 -1.3732207483441658e+02 0 0 0
1738 50 2 0.0000000000000000e+00 -1.0341841145616446e+02 3.9720138369114487e+01 -1.3897445622911212e+02 0 0 0
1739 50 2 0.0000000000000000e+00 -1.0862247305692028e+02 3.9785366053582422e+01 -1.2989350156602131e+02 0 0 0
6508 186 4 0.0000000000000000e+00 -9.6333896025476676e+01 3.9883354778074612e+01 -1.3142769880968575e+02 0 0 0
6507 186 3 0.0000000000000000e+00 -9.5136927130198231e+01 3.0959809000744624e+01 -1.2717854673768298e+02 0 0 0
2067 60 2 0.0000000000000000e+00 -7.5174003498879458e+01 3.7041519887474891e+01 -1.2736231338425166e+02 0 0 0
929 27 2 0.0000000000000000e+00 -8.6088524288865628e+01 4.0300367024109114e+01 -1.2734323526526144e+02 0 0 0
2932 84 2 0.0000000000000000e+00 -5.9267667181396959e+01 2.9674230756885784e+01 -1.3548911388505135e+02 0 0 0
2068 60 2 0.0000000000000000e+00 -6.9310602593036791e+01 3.9283580566041756e+01 -1.3545597351624511e+02 0 0 0
6511 187 4 0.0000000000000000e+00 -5.5725790718455038e+01 3.8512306191629499e+01 -1.3939922963064325e+02 0 0 0
2931 84 2 0.0000000000000000e+00 -5.0608328553189494e+01 2.8656031226175344e+01 -1.3879841081598880e+02 0 0 0
2930 84 1 0.0000000000000000e+00 -4.2304954828549207e+01 3.3741732748239286e+01 -1.3582307197823670e+02 0 0 0
2929 84 2 0.0000000000000000e+00 -3.5808267765296335e+01 3.4445833936719410e+01 -1.2770584628392977e+02 0 0 0
6544 187 4 0.0000000000000000e+00 -2.3817566029904491e+01 2.8026458186640646e+01 -1.3749197415277692e+02 0 0 0
5532 159 4 0.0000000000000000e+00 -2.0043022488743201e+01 3.8879319423157554e+01 -1.3703287739715964e+02 0 0 0
3632 104 4 0.0000000000000000e+00 -1.9880761173089255e+01 3.3533435265503975e+01 -1.2766288330422046e+02 0 0 0
5343 153 4 0.0000000000000000e+00 -6.5073848469263602e+00 3.6503497697200402e+01 -1.2913806685348101e+02 0 0 0
5344 153 4 0.0000000000000000e+00 -4.2709530333067445e+00 3.5943888960341951e+01 -1.3852067750158929e+02 0 0 0
4849 139 4 0.0000000000000000e+00 -3.1777878123577164e+01 -1.2238500702800528e+02 -1.1786386321963607e+02 0 0 0
4848 139 3 0.0000000000000000e+00 -3.8831537382696474e+01 -1.1862158069630550e+02 -1.2405272904390800e+02 0 0 0
4844 139 4 0.0000000000000000e+00 -1.4663872376973908e+01 -9.6442269496522485e+01 -1.2043642951579974e+02 0 0 0
4843 139 4 0.0000000000000000e+00 -5.8706441785674688e+00 -9.7117651014710034e+01 -1.1631616310023554e+02 0 0 0
6245 179 4 0.0000000000000000e+00 -1.5740076477556839e+01 -8.1227944772198299e+01 -1.1730237608347726e+02 0 0 0
6329 181 4 0.0000000000000000e+00 -6.6699554725919405e+00 -7.1050756793951336e+01 -1.2309870705628340e+02 0 0 0
6246 179 4 0.0000000000000000e+00 -6.5738822516130959e+00 -7.8896661078638019e+01 -1.1282817666459503e+02 0 0 0
4179 120 4 0.0000000000000000e+00 -4.6535373587461166e+01 -5.5942051769477658e+01 -1.1819815117282535e+02 0 0 0
4178 120 4 0.0000000000000000e+00 -4.3569122039276074e+01 -6.5297173828740540e+01 -1.1588228370512064e+02 0 0 0
4185 120 4 0.0000000000000000e+00 -3.2501738189272992e+01 -6.2034709233321159e+01 -1.1293820987213928e+02 0 0 0
4864 139 4 0.0000000000000000e+00 -1.8521973163426953e+01 -6.2286387102375258e+01 -1.1754947686161066e+02 0 0 0
1514 44 2 0.0000000000000000e+00 -5.9667454296732288e+01 -4.8356257592943500e+01 -1.2411689590885049e+02 0 0 0
1515 44 2 0.0000000000000000e+00 -5.6026477117535791e+01 -5.3404260160695465e+01 -1.1627970124127344e+02 0 0 0
1513 44 2 0.0000000000000000e+00 -5.3192000442020316e+01 -4.3058475868853222e+01 -1.1910700549778859e+02 0 0 0
4180 120 4 0.0000000000000000e+00 -4.5133715789151083e+01 -4.7488429254104872e+01 -1.2374992680446205e+02 0 0 0
4184 120 4 0.0000000000000000e+00 -3.5784210003431191e+01 -5.3281194544228597e+01 -1.1566887853466885e+02 0 0 0
4183 120 3 0.0000000000000000e+00 -3.4640631909105174e+01 -4.5051656011360251e+01 -1.2123869772183573e+02 0 0 0
2824 81 2 0.0000000000000000e+00 -2.5747098208311641e+01 -4.0804236768797203e+01 -1.2367585875774290e+02 0 0 0
2825 81 1 0.0000000000000000e+00 -2.6499336833616944e+01 -4.2044435140716551e+01 -1.1392413855165795e+02 0 0 0
6236 179 4 0.0000000000000000e+00 -1.0256010955022033e+01 -4.0550949207623333e+01 -1.2132378655951820e+02 0 0 0
6235 179 4 0.0000000000000000e+00 -5.8434178175887395e+00 -4.3590734713960309e+01 -1.1201024048368231e+02 0 0 0
1512 44 2 0.0000000000000000e+00 -4.6619131149950469e+01 -3.9006727334136578e+01 -1.1269784723383503e+02 0 0 0
1519 44 2 0.0000000000000000e+00 -5.5803984357752327e+01 -2.9153202893560664e+01 -1.1645442036472818e+02 0 0 0
1511 44 2 0.0000000000000000e+00 -4.3167897245247616e+01 -2.9607404284705272e+01 -1.1340411484204580e+02 0 0 0
1507 44 2 0.0000000000000000e+00 -1.5564952011132162e+01 -2.7084103238253189e+01 -1.1929847977399496e+02 0 0 0
2660 76 2 0.0000000000000000e+00 -7.7299126065689814e+00 -2.9505952398932358e+01 -1.1222879177935049e+02 0 0 0
1924 55 2 0.0000000000000000e+00 -9.9766892044166141e+01 -1.3796790287288204e+01 -1.1399143386599303e+02 0 0 0
1379 40 2 0.0000000000000000e+00 -8.0182575336580712e+01 -1.5102577291505481e+01 -1.2545987312529998e+02 0 0 0
1520 44 2 0.0000000000000000e+00 -5.0921036406097798e+01 -2.1531070539924777e+01 -1.2022860932751993e+02 0 0 0
5529 158 4 0.0000000000000000e+00 -4.5250736502508971e+01 -1.3664095541043009e+01 -1.1249293355355591e+02 0 0 0
1510 44 2 0.0000000000000000e+00 -3.8142229646437180e+01 -2.1429875608804796e+01 -1.1448647846050609e+02 0 0 0
1509 44 1 0.0000000000000000e+00 -2.9810397165345631e+01 -1.6540425798772898e+01 -1.1570503356490362e+02 0 0 0
6534 187 4 0.0000000000000000e+00 -2.3254191374592917e+01 -1.7385953787339808e+01 -1.2429351297011701e+02 0 0 0
1508 44 2 0.0000000000000000e+00 -2.3608347147581927e+01 -2.3518786153986941e+01 -1.1599746352272578e+02 0 0 0
1506 44 2 0.0000000000000000e+00 -7.0857940525436360e+00 -2.3899098739248359e+01 -1.2385961145155227e+02 0 0 0
5321 153 4 0.0000000000000000e+00 -1.5375496894170615e+01 -1.4564594235581330e+01 -1.1717991575339960e+02 0 0 0
2939 84 2 0.0000000000000000e+00 -1.1407719520275309e+02 -2.4314712072927880e-01 -1.2392515107743594e+02 0 0 0
3737 107 4 0.0000000000000000e+00 -1.0161273973067136e+02 -1.3405707131634677e+00 -1.2053669068563914e+02 0 0 0
1380 40 2 0.0000000000000000e+00 -8.6369856003599153e+01 -1.0618215918588483e+01 -1.1915746827000243e+02 0 0 0
1381 40 2 0.0000000000000000e+00 -8.4979447310341030e+01 -1.8456063763558368e+00 -1.1427585473002745e+02 0 0 0
2547 73 2 0.0000000000000000e+00 -7.3712673433874528e+01 -8.3621303898622728e+00 -1.1930132985218454e+02 0 0 0
5525 158 4 0.0000000000000000e+00 -6.1887366428433694e+01 -3.0652126154971477e+00 -1.2015736602579702e+02 0 0 0
5524 158 4 0.0000000000000000e+00 -6.4129556235755189e+01 -7.2584558695447816e+00 -1.1206608651961685e+02 0 0 0
5528 158 4 0.0000000000000000e+00 -5.1062819574348438e+01 -8.9464021596407388e+00 -1.1967438562403404e+02 0 0 0
6537 187 4 0.0000000000000000e+00 -4.1135553142054569e+01 -5.9807198432037711e-01 -1.2259882235573454e+02 0 0 0
6536 187 4 0.0000000000000000e+00 -3.5069142737654467e+01 -7.0749335477146671e+00 -1.1753211336887180e+02 0 0 0
6535 187 3 0.0000000000000000e+00 -3.0677998561270844e+01 -1.1013095889568591e+01 -1.2522036178471728e+02 0 0 0
5322 153 4 0.0000000000000000e+00 -2.2558637096128223e+01 -8.1164110219434775e+00 -1.1333594735702404e+02 0 0 0
5142 147 3 0.0000000000000000e+00 -1.6002180157794225e+01 -3.3117667301265730e+00 -1.2503394978532646e+02 0 0 0
5141 147 4 0.0000000000000000e+00 -9.3916417412621573e+00 -4.5724760172540675e+00 -1.1770355201355200e+02 0 0 0
2940 84 2 0.0000000000000000e+00 -1.1676917409289049e+02 3.8883630731789607e+00 -1.1525505911677823e+02 0 0 0