LAMMPS data file via write_data, version 5 Jun 2019, timestep = 460000000

7000 atoms
4 atom types
7281 bonds
3 bond types
6600 angles
2 angle types

-5.0000000000000000e+02 5.0000000000000000e+02 xlo xhi
-5.0000000000000000e+02 5.0000000000000000e+02 ylo yhi
-5.0000000000000000e+02 5.0000000000000000e+02 zlo zhi

Masses

1 1000
2 1000
3 1000
4 1000

Pair Coeffs # lj/cut

1 0.296 10
2 0.296 10
3 0.296 10
4 0.296 10

Angle Coeffs # cosine

1 2
2 2

Atoms # full

1508 44 2 0.0000000000000000e+00 -1.2326056357958431e+02 4.0864989792586073e+01 -1.7516421344161793e+02 0 0 0
1509 44 1 0.0000000000000000e+00 -1.1519992946803114e+02 3.5042586384859263e+01 -1.7521874438341609e+02 0 0 0
3195 92 2 0.0000000000000000e+00 -6.5323789695653616e+01 6.0674988807369019e+01 -1.7367470642964196e+02 0 0 0
1725 50 2 0.0000000000000000e+00 -4.7630367362795759e+01 5.9559209761708004e+01 -1.7271257743116277e+02 0 0 0
1726 50 1 0.0000000000000000e+00 -5.4627580813001870e+01 5.2811879592560587e+01 -1.7444453612231979e+02 0 0 0
2071 60 2 0.0000000000000000e+00 -1.0597626414075577e+02 1.0143174072237258e+01 -1.6342937261161055e+02 0 0 0
3015 87 2 0.0000000000000000e+00 -5.6715506219076630e+01 1.5801941890457961e+01 -1.5914550391014913e+02 0 0 0
6894 197 4 0.0000000000000000e+00 -1.2778315054859493e+02 2.9990739861432818e+01 -1.5887530519838782e+02 0 0 0
6895 197 4 0.0000000000000000e+00 -1.2262787712513503e+02 2.1519066149596838e+01 -1.6011592858262694e+02 0 0 0
6534 187 4 0.0000000000000000e+00 -1.1729025940418553e+02 3.1446945387784197e+01 -1.5847332925374477e+02 0 0 0
1510 44 2 0.0000000000000000e+00 -1.0803903852166279e+02 3.3793232595016683e+01 -1.6790597421247972e+02 0 0 0
1511 44 2 0.0000000000000000e+00 -1.0102470700286393e+02 3.2718655599646041e+01 -1.5995230006524241e+02 0 0 0
1512 44 2 0.0000000000000000e+00 -9.1806392194719791e+01 3.1399589437257454e+01 -1.6048842396564518e+02 0 0 0
1513 44 2 0.0000000000000000e+00 -8.3148157702809343e+01 2.6655181173031835e+01 -1.5873082745931845e+02 0 0 0
3016 87 2 0.0000000000000000e+00 -6.3109929875553327e+01 2.1359982252374415e+01 -1.6440983899639389e+02 0 0 0
3017 87 2 0.0000000000000000e+00 -6.4762663324729132e+01 3.0742661371782269e+01 -1.6105351624686284e+02 0 0 0
1507 44 2 0.0000000000000000e+00 -1.2628879016368168e+02 4.1710302634257104e+01 -1.6504182892992711e+02 0 0 0
6535 187 3 0.0000000000000000e+00 -1.1576040222902782e+02 3.8801582220164242e+01 -1.6494249176901377e+02 0 0 0
3186 92 2 0.0000000000000000e+00 -9.7258109608956929e+01 4.2415516296531486e+01 -1.5802445363398493e+02 0 0 0
3018 87 2 0.0000000000000000e+00 -5.6817741762922687e+01 3.5812944307870190e+01 -1.5820831538383041e+02 0 0 0
5437 156 4 0.0000000000000000e+00 -5.8003063533318183e+01 4.6571735152392236e+01 -1.6087141177928595e+02 0 0 0
3019 87 2 0.0000000000000000e+00 -4.7705601626149587e+01 3.9060228184833129e+01 -1.6107439703526879e+02 0 0 0
5436 156 3 0.0000000000000000e+00 -5.0426711253017935e+01 4.7262806855879489e+01 -1.6582582195636209e+02 0 0 0
3020 87 2 0.0000000000000000e+00 -3.7889669858238264e+01 3.9964865213828652e+01 -1.6319053046295431e+02 0 0 0
1506 44 2 0.0000000000000000e+00 -1.2924646849531626e+02 4.9285569875797179e+01 -1.5921323410306186e+02 0 0 0
1786 52 2 0.0000000000000000e+00 -1.3044598757494683e+02 5.2396699617149473e+01 -1.6802370368873554e+02 0 0 0
6536 187 4 0.0000000000000000e+00 -1.1614438092140361e+02 4.8510328389177232e+01 -1.6461370426032644e+02 0 0 0
6537 187 4 0.0000000000000000e+00 -1.1900996980231324e+02 5.7359974326660875e+01 -1.6133254125511607e+02 0 0 0
3194 92 2 0.0000000000000000e+00 -6.6743916048848035e+01 5.2035038532712655e+01 -1.6961462631349045e+02 0 0 0
3193 92 2 0.0000000000000000e+00 -6.4782988171981870e+01 5.3192777026270349e+01 -1.5994967701880890e+02 0 0 0
1727 50 2 0.0000000000000000e+00 -5.5739703430333527e+01 5.7544637243038174e+01 -1.6568496657671264e+02 0 0 0
5435 156 4 0.0000000000000000e+00 -4.6124131894776220e+01 5.5066444889297493e+01 -1.6250997614544139e+02 0 0 0
2068 60 2 0.0000000000000000e+00 -1.0859068883441408e+02 -1.1458385490412763e+01 -1.4937234634708599e+02 0 0 0
2067 60 2 0.0000000000000000e+00 -1.0356074487340790e+02 -1.8727440150191160e+01 -1.4481627162019910e+02 0 0 0
2069 60 1 0.0000000000000000e+00 -1.0563405473968501e+02 -2.7479143434070523e+00 -1.5417122228605908e+02 0 0 0
6519 187 4 0.0000000000000000e+00 -9.2426683166709992e+01 -3.6862825804497810e+00 -1.4711298500497094e+02 0 0 0
3013 87 2 0.0000000000000000e+00 -4.8159069513627145e+01 5.6035748688402958e+00 -1.5389941878553728e+02 0 0 0
3012 87 2 0.0000000000000000e+00 -4.0202015621422156e+01 3.8578521403274797e+00 -1.4777384101167749e+02 0 0 0
3011 87 2 0.0000000000000000e+00 -3.3836308120841153e+01 -3.5613119593129077e+00 -1.4989373678063271e+02 0 0 0
6523 187 4 0.0000000000000000e+00 -1.1988984362710961e+02 1.3929272087366378e+01 -1.4691489820513124e+02 0 0 0
2070 60 2 0.0000000000000000e+00 -1.0782956294048884e+02 6.6235617423401383e+00 -1.5349652256338817e+02 0 0 0
2072 60 2 0.0000000000000000e+00 -1.0419219495656205e+02 1.8411402136855049e+01 -1.5767868928049253e+02 0 0 0
2206 64 2 0.0000000000000000e+00 -1.0008593775521956e+02 6.5870907527848388e+00 -1.4503373701083379e+02 0 0 0
2207 64 2 0.0000000000000000e+00 -9.3208202378539440e+01 1.1827135543274000e+01 -1.4989836661335826e+02 0 0 0
2208 64 2 0.0000000000000000e+00 -8.3330326274511762e+01 9.9892956982596175e+00 -1.4656715400066722e+02 0 0 0
1515 44 2 0.0000000000000000e+00 -7.1962875032048075e+01 1.7013584022274731e+01 -1.4582834162355311e+02 0 0 0
5564 159 4 0.0000000000000000e+00 -7.0313509585492085e+01 7.0234884502018256e+00 -1.5108013998023222e+02 0 0 0
1514 44 2 0.0000000000000000e+00 -7.8638997936876393e+01 2.0067886786405555e+01 -1.5325756681144935e+02 0 0 0
5565 159 4 0.0000000000000000e+00 -6.5810307060353665e+01 1.3492446912005361e+01 -1.5754757401589245e+02 0 0 0
3014 87 1 0.0000000000000000e+00 -4.7151333204583196e+01 1.4750951270095440e+01 -1.5640512287362952e+02 0 0 0
6514 187 3 0.0000000000000000e+00 -5.1116036547595051e+01 1.3322319029378532e+01 -1.4589171947132070e+02 0 0 0
6524 187 4 0.0000000000000000e+00 -1.2775978783266133e+02 2.0549905769659912e+01 -1.4538731072225636e+02 0 0 0
6532 187 4 0.0000000000000000e+00 -1.1208861979477149e+02 2.0957612912042411e+01 -1.4502254458573429e+02 0 0 0
6533 187 4 0.0000000000000000e+00 -1.1906109070589042e+02 2.5226461727538432e+01 -1.5075041031021340e+02 0 0 0
2073 60 2 0.0000000000000000e+00 -1.0193184560652291e+02 2.2313445448675445e+01 -1.4850380034107337e+02 0 0 0
3188 92 2 0.0000000000000000e+00 -8.8847273129095186e+01 3.0470579572425322e+01 -1.4520408620494470e+02 0 0 0
3190 92 2 0.0000000000000000e+00 -7.2793623668196972e+01 3.2510443798563173e+01 -1.4611228069133821e+02 0 0 0
6512 187 4 0.0000000000000000e+00 -4.9484887514104287e+01 3.2359191284410883e+01 -1.4962452844097032e+02 0 0 0
6513 187 4 0.0000000000000000e+00 -5.1861198528626232e+01 2.2354746639094177e+01 -1.5059796506285198e+02 0 0 0
1645 47 2 0.0000000000000000e+00 -4.1325804778070562e+01 3.1490971657749075e+01 -1.5654175189680652e+02 0 0 0
5442 156 4 0.0000000000000000e+00 -4.0247926098881400e+01 3.0228587262106181e+01 -1.4612649128668764e+02 0 0 0
1644 47 2 0.0000000000000000e+00 -3.9116953778254548e+01 2.2032899565452297e+01 -1.5169414809085839e+02 0 0 0
6892 197 3 0.0000000000000000e+00 -1.3710080342704879e+02 4.3727493996735696e+01 -1.4892946183951148e+02 0 0 0
6893 197 4 0.0000000000000000e+00 -1.3539715372273503e+02 3.5600107111836046e+01 -1.5553681113913652e+02 0 0 0
6279 180 4 0.0000000000000000e+00 -1.0199435668783372e+02 4.5525716994245165e+01 -1.4492844702824158e+02 0 0 0
3187 92 2 0.0000000000000000e+00 -9.5229365982521216e+01 3.4804230459400038e+01 -1.5152579103379330e+02 0 0 0
6182 177 4 0.0000000000000000e+00 -7.3988273808234524e+01 4.6349293395875051e+01 -1.4914038356643673e+02 0 0 0
3191 92 2 0.0000000000000000e+00 -6.7291034274542227e+01 3.7926441987389310e+01 -1.5353240368164120e+02 0 0 0
3192 92 2 0.0000000000000000e+00 -6.3255617127767444e+01 4.6887573743595766e+01 -1.5327562630842851e+02 0 0 0
6511 187 4 0.0000000000000000e+00 -5.4964128141342933e+01 4.0700683292550167e+01 -1.4811936992743969e+02 0 0 0
3021 87 1 0.0000000000000000e+00 -3.5594725034916124e+01 4.7138937262796532e+01 -1.5676218946007407e+02 0 0 0
5443 156 3 0.0000000000000000e+00 -3.5292613980909117e+01 3.7183105822035500e+01 -1.5171115047932781e+02 0 0 0
3022 87 2 0.0000000000000000e+00 -3.2778522448021647e+01 4.6447892044082288e+01 -1.4714032277828520e+02 0 0 0
488 14 2 0.0000000000000000e+00 -1.4015529036063975e+02 5.6139222495298178e+01 -1.4842599572713297e+02 0 0 0
487 14 1 0.0000000000000000e+00 -1.3079951926254267e+02 5.2543515753566908e+01 -1.4583096665751233e+02 0 0 0
486 14 2 0.0000000000000000e+00 -1.2301234844096435e+02 5.6734192747100046e+01 -1.5097252737722266e+02 0 0 0
6280 180 4 0.0000000000000000e+00 -1.1087062021814745e+02 4.7522143157897794e+01 -1.4986040656100172e+02 0 0 0
5888 169 4 0.0000000000000000e+00 -9.7833030844566736e+01 5.3218873846052809e+01 -1.5391737117630419e+02 0 0 0
5889 169 4 0.0000000000000000e+00 -1.0502922273461178e+02 5.8896117367604838e+01 -1.5263814302494524e+02 0 0 0
6184 177 4 0.0000000000000000e+00 -8.9824933745912759e+01 5.5282672081105609e+01 -1.5727908586671617e+02 0 0 0
5887 169 4 0.0000000000000000e+00 -9.1375085329987314e+01 4.8248821398512185e+01 -1.4807450457301942e+02 0 0 0
6183 177 4 0.0000000000000000e+00 -8.1971293724484369e+01 4.9563309561944607e+01 -1.5457527389034490e+02 0 0 0
5913 169 4 0.0000000000000000e+00 -6.9680326304207455e+01 6.0147483877850398e+01 -1.5391638916917086e+02 0 0 0
5912 169 3 0.0000000000000000e+00 -6.2426542241371067e+01 5.9180662229367783e+01 -1.4763247676085234e+02 0 0 0
5439 156 4 0.0000000000000000e+00 -4.7240760468141843e+01 4.8020481118777951e+01 -1.4659324713481936e+02 0 0 0
5438 156 4 0.0000000000000000e+00 -5.3331445113102575e+01 5.1861077630161965e+01 -1.5375610348503369e+02 0 0 0
2493 72 2 0.0000000000000000e+00 -4.0275913953445887e+01 5.4748800818997523e+01 -1.4700474466808026e+02 0 0 0
6249 179 4 0.0000000000000000e+00 -7.9408931510543084e+01 -4.2988406937757965e+01 -1.3914189926127673e+02 0 0 0
6250 179 4 0.0000000000000000e+00 -6.9800264791937138e+01 -4.6673953692964794e+01 -1.4019154460437053e+02 0 0 0
6251 179 4 0.0000000000000000e+00 -6.5386798375688329e+01 -3.8469819903540412e+01 -1.3687361679498724e+02 0 0 0
2828 81 2 0.0000000000000000e+00 -3.3318743135153476e+01 -4.3695199490398352e+01 -1.3578927259113692e+02 0 0 0
2066 60 2 0.0000000000000000e+00 -9.5043500453549598e+01 -2.3145737195261475e+01 -1.4153641539716244e+02 0 0 0
6248 179 3 0.0000000000000000e+00 -7.9176041298451267e+01 -3.4606695139453493e+01 -1.3249361220462490e+02 0 0 0
6247 179 4 0.0000000000000000e+00 -8.1445994245493324e+01 -2.5315735909085884e+01 -1.3264717534099853e+02 0 0 0
6252 179 4 0.0000000000000000e+00 -6.6556344118721015e+01 -2.8346519697498564e+01 -1.3772457036754807e+02 0 0 0
2084 60 2 0.0000000000000000e+00 -4.2703612495660892e+01 -2.4373618075053109e+01 -1.4099586654291863e+02 0 0 0
2085 60 2 0.0000000000000000e+00 -4.8429198887375399e+01 -3.0338856987002409e+01 -1.3553427383302471e+02 0 0 0
2827 81 2 0.0000000000000000e+00 -3.4087111278210301e+01 -3.4388150147719813e+01 -1.3231718957323289e+02 0 0 0
2824 81 2 0.0000000000000000e+00 -2.9027657978926204e+01 -2.7791273586137663e+01 -1.4047834816708229e+02 0 0 0
5539 159 4 0.0000000000000000e+00 -1.0573237729240742e+02 -8.5840240900566620e+00 -1.3324542729160422e+02 0 0 0
2078 60 2 0.0000000000000000e+00 -7.5146473023234307e+01 -1.0680179426210419e+01 -1.3296794641762045e+02 0 0 0
6253 179 4 0.0000000000000000e+00 -6.0910656175240256e+01 -2.0129724202346733e+01 -1.3559184763433888e+02 0 0 0
2079 60 2 0.0000000000000000e+00 -6.5034821404789867e+01 -8.6116160487708040e+00 -1.3478903212292857e+02 0 0 0
6255 179 3 0.0000000000000000e+00 -4.3866540894415841e+01 -1.9128389904622615e+01 -1.3121952500902012e+02 0 0 0
6254 179 4 0.0000000000000000e+00 -5.1959461351439927e+01 -1.5137534820961298e+01 -1.3536843160433875e+02 0 0 0
2082 60 2 0.0000000000000000e+00 -4.5276843300706339e+01 -1.0861827861946509e+01 -1.4167986207174110e+02 0 0 0
2083 60 1 0.0000000000000000e+00 -3.7021745393950802e+01 -1.6466739064110982e+01 -1.3926316591046307e+02 0 0 0
1757 51 2 0.0000000000000000e+00 -3.9211336364045842e+01 -1.0531338826255551e+01 -1.3049059807708741e+02 0 0 0
1758 51 2 0.0000000000000000e+00 -3.0491422038178481e+01 -8.9161508661631768e+00 -1.3576110907865822e+02 0 0 0
6521 187 3 0.0000000000000000e+00 -1.0877032891100862e+02 -1.3732742977527170e+00 -1.4415373937789153e+02 0 0 0
6520 187 4 0.0000000000000000e+00 -1.0119465869982086e+02 -7.2546354843326535e+00 -1.4345222205800317e+02 0 0 0
5540 159 4 0.0000000000000000e+00 -1.0565026279859134e+02 1.4758858742266741e+00 -1.3379532830700774e+02 0 0 0
6518 187 4 0.0000000000000000e+00 -8.3393812748545969e+01 -1.2598199931455802e+00 -1.4408900423952008e+02 0 0 0
2076 60 1 0.0000000000000000e+00 -8.7050843010349539e+01 2.9305697474464081e+00 -1.3218394582949529e+02 0 0 0
2077 60 2 0.0000000000000000e+00 -8.3850960913000648e+01 -6.3841013165487368e+00 -1.3147067974739915e+02 0 0 0
6517 187 4 0.0000000000000000e+00 -7.3890445324700039e+01 -2.8384438248193700e+00 -1.4242670357513839e+02 0 0 0
5562 159 3 0.0000000000000000e+00 -7.3921391974672872e+01 6.3108717388310227e+00 -1.3301122244042736e+02 0 0 0
6515 187 4 0.0000000000000000e+00 -5.8277888698486770e+01 6.3202756354785858e+00 -1.4284720978230328e+02 0 0 0
6516 187 4 0.0000000000000000e+00 -6.5461855592018779e+01 3.4197210550095358e-01 -1.4089785857230771e+02 0 0 0
2080 60 2 0.0000000000000000e+00 -5.6307862450513561e+01 -3.0955622957701041e+00 -1.3313941146011697e+02 0 0 0
2081 60 2 0.0000000000000000e+00 -5.0194526931571801e+01 -2.1876348313052270e+00 -1.4130663907300448e+02 0 0 0
1641 47 2 0.0000000000000000e+00 -3.5185604511517610e+01 5.4751249955189811e+00 -1.3115684945461820e+02 0 0 0
1540 44 2 0.0000000000000000e+00 -1.3304325004023002e+02 1.6458053313446026e+01 -1.3466864474254490e+02 0 0 0
1539 44 2 0.0000000000000000e+00 -1.2934797995602136e+02 1.1216133631181934e+01 -1.4173129098596439e+02 0 0 0
6522 187 4 0.0000000000000000e+00 -1.1479916495818226e+02 6.5500361504105724e+00 -1.4376830086858976e+02 0 0 0
1538 44 2 0.0000000000000000e+00 -1.2263419820585868e+02 1.6027765294060060e+01 -1.3682947296578399e+02 0 0 0
5111 147 4 0.0000000000000000e+00 -1.0807871151000224e+02 1.3814584934746799e+01 -1.3561349994074860e+02 0 0 0
2074 60 2 0.0000000000000000e+00 -9.8313187211884014e+01 1.7953104090166313e+01 -1.3996974771292253e+02 0 0 0
2075 60 2 0.0000000000000000e+00 -9.2008734458243168e+01 9.6796595892673114e+00 -1.3787153074657365e+02 0 0 0
2210 64 2 0.0000000000000000e+00 -8.5950563551983407e+01 1.4071707877739394e+01 -1.3084329832489999e+02 0 0 0
2209 64 1 0.0000000000000000e+00 -8.0642903301758338e+01 1.5360427249469762e+01 -1.3834955600980388e+02 0 0 0
5563 159 4 0.0000000000000000e+00 -7.4466827987803924e+01 7.8405791860811913e+00 -1.4259063535449530e+02 0 0 0
1516 44 1 0.0000000000000000e+00 -6.6741065766917686e+01 1.3430926960945646e+01 -1.3864807972164203e+02 0 0 0
1517 44 2 0.0000000000000000e+00 -6.1994310557509287e+01 6.5673467421702449e+00 -1.3267027676892999e+02 0 0 0
1643 47 2 0.0000000000000000e+00 -4.0256790198960552e+01 1.7574249615327627e+01 -1.4337752171420806e+02 0 0 0
1642 47 1 0.0000000000000000e+00 -3.7586473720995215e+01 1.4820965096053129e+01 -1.3411290434070978e+02 0 0 0
6526 187 4 0.0000000000000000e+00 -1.3590998514518000e+02 3.1275239331010965e+01 -1.3236915910613047e+02 0 0 0
6525 187 4 0.0000000000000000e+00 -1.3316350219406587e+02 2.8664416819830116e+01 -1.4207761390323466e+02 0 0 0
6531 187 4 0.0000000000000000e+00 -1.0553217888731400e+02 2.4912566087945446e+01 -1.3861590840752737e+02 0 0 0
5883 169 4 0.0000000000000000e+00 -9.2773990003541314e+01 3.3407110565316188e+01 -1.3591467660371282e+02 0 0 0
5114 147 3 0.0000000000000000e+00 -8.8384495166246751e+01 2.3315170013787398e+01 -1.3416905110907780e+02 0 0 0
3189 92 1 0.0000000000000000e+00 -8.0172708492259900e+01 2.6232132949271485e+01 -1.4312678983533527e+02 0 0 0
5115 147 4 0.0000000000000000e+00 -7.8799254945435621e+01 2.4063330670831814e+01 -1.3222593212333055e+02 0 0 0
5884 169 3 0.0000000000000000e+00 -8.2732832754494822e+01 3.3247248355709971e+01 -1.3547157582619110e+02 0 0 0
5116 147 4 0.0000000000000000e+00 -6.9518365046596159e+01 2.1351335072451988e+01 -1.3133171174917456e+02 0 0 0
5441 156 4 0.0000000000000000e+00 -4.3971804243446414e+01 3.1128761342423875e+01 -1.3695732073774948e+02 0 0 0
3636 104 4 0.0000000000000000e+00 -3.1495256590594391e+01 3.1226788650530612e+01 -1.3246009269036023e+02 0 0 0
934 27 2 0.0000000000000000e+00 -1.3725625135199454e+02 4.2518971418809279e+01 -1.3346523249262100e+02 0 0 0
6282 180 4 0.0000000000000000e+00 -1.2465126538343030e+02 4.3798208235934794e+01 -1.3856170356566636e+02 0 0 0
6281 180 4 0.0000000000000000e+00 -1.1565541203810076e+02 4.1974490054023356e+01 -1.4241163021227786e+02 0 0 0
5881 169 4 0.0000000000000000e+00 -1.0918249970449624e+02 3.3867406638888077e+01 -1.4372850225488938e+02 0 0 0
5882 169 4 0.0000000000000000e+00 -1.0201814348634703e+02 3.6202431422556238e+01 -1.3712130269857693e+02 0 0 0
5886 169 4 0.0000000000000000e+00 -8.4819652519543382e+01 4.7035728125308047e+01 -1.3981662177432779e+02 0 0 0
5885 169 4 0.0000000000000000e+00 -7.8596096770449321e+01 3.9807485135390436e+01 -1.4130437834236102e+02 0 0 0
6181 177 4 0.0000000000000000e+00 -6.7992592348315469e+01 4.7298473829500985e+01 -1.4187594665015445e+02 0 0 0
5440 156 4 0.0000000000000000e+00 -4.6177176808214391e+01 3.9376818459515292e+01 -1.4169838389714792e+02 0 0 0
3023 87 2 0.0000000000000000e+00 -2.9629281435985632e+01 3.7646936601306720e+01 -1.4299375710908811e+02 0 0 0
3635 104 4 0.0000000000000000e+00 -3.3641986264389551e+01 4.0701570556671335e+01 -1.3393365976936590e+02 0 0 0
6891 197 4 0.0000000000000000e+00 -1.4215301718007163e+02 4.8155951138150861e+01 -1.4125046383441975e+02 0 0 0
6890 197 4 0.0000000000000000e+00 -1.4777707226939484e+02 5.4586868315460634e+01 -1.3672692621193420e+02 0 0 0
935 27 1 0.0000000000000000e+00 -1.3585836778026820e+02 5.2637021575713533e+01 -1.3380587076299869e+02 0 0 0
6283 180 3 0.0000000000000000e+00 -1.2531635675431390e+02 5.2329081543848908e+01 -1.3358068265041595e+02 0 0 0
6278 180 4 0.0000000000000000e+00 -9.6422133142761169e+01 4.7757511176371693e+01 -1.3698340360890580e+02 0 0 0
2921 84 2 0.0000000000000000e+00 -8.8369938448046028e+01 5.8348076537023282e+01 -1.4041530703645620e+02 0 0 0
2920 84 2 0.0000000000000000e+00 -7.8852417600615809e+01 5.7683136266746686e+01 -1.3812626598488845e+02 0 0 0
2919 84 2 0.0000000000000000e+00 -7.5816890588918397e+01 5.0852204010039628e+01 -1.3122689607252136e+02 0 0 0
6180 177 4 0.0000000000000000e+00 -6.4082490834285281e+01 5.3443587588804924e+01 -1.3480790743884552e+02 0 0 0
5911 169 4 0.0000000000000000e+00 -5.6091587391982507e+01 5.9181578113198249e+01 -1.3974019633849184e+02 0 0 0
2494 72 2 0.0000000000000000e+00 -4.5106795994079128e+01 5.7701943901673033e+01 -1.3927851318154126e+02 0 0 0
5910 169 4 0.0000000000000000e+00 -5.3397735315368109e+01 5.1624812621023679e+01 -1.3372120222059323e+02 0 0 0
3634 104 4 0.0000000000000000e+00 -3.3338499124917668e+01 5.0344432623693038e+01 -1.3699010723836327e+02 0 0 0
2829 81 2 0.0000000000000000e+00 -3.5966049039095914e+01 -5.0452397569924514e+01 -1.2976722421918694e+02 0 0 0
2830 81 2 0.0000000000000000e+00 -3.5012272120625212e+01 -5.5411229334006229e+01 -1.2075379008438047e+02 0 0 0
2090 60 1 0.0000000000000000e+00 -7.2581462461934080e+01 -4.0044852726601306e+01 -1.2575468231749757e+02 0 0 0
2091 60 2 0.0000000000000000e+00 -6.3870954779035692e+01 -3.6131429211957254e+01 -1.2085900659492212e+02 0 0 0
6257 179 4 0.0000000000000000e+00 -4.2815630329494446e+01 -3.5991261987114399e+01 -1.2359520671301978e+02 0 0 0
6258 179 4 0.0000000000000000e+00 -3.6315165921020338e+01 -4.2063420465082167e+01 -1.1860527920241331e+02 0 0 0
5537 159 4 0.0000000000000000e+00 -9.8393550187446039e+01 -2.5571078216105878e+01 -1.2637804398847420e+02 0 0 0
6246 179 4 0.0000000000000000e+00 -8.3396759872759901e+01 -2.1083935076398202e+01 -1.2316216289741143e+02 0 0 0
5536 159 4 0.0000000000000000e+00 -9.3999859054334323e+01 -2.1350889881344820e+01 -1.1853291688989532e+02 0 0 0
2089 60 2 0.0000000000000000e+00 -7.3688433920654660e+01 -3.0670444595804945e+01 -1.2450533442875843e+02 0 0 0
2087 60 2 0.0000000000000000e+00 -6.2173268464167187e+01 -2.3171500521975148e+01 -1.2397494843434633e+02 0 0 0
2092 60 2 0.0000000000000000e+00 -5.5869637142937172e+01 -3.3870405978312178e+01 -1.1688346333025675e+02 0 0 0
2086 60 2 0.0000000000000000e+00 -5.3338367001032282e+01 -2.7056331743864245e+01 -1.2749644311084020e+02 0 0 0
6256 179 4 0.0000000000000000e+00 -4.2151261931799915e+01 -2.6618679774210310e+01 -1.2546563623340312e+02 0 0 0
1752 51 2 0.0000000000000000e+00 -3.4380273221386922e+01 -2.9541239521780241e+01 -1.1961402194807125e+02 0 0 0
5538 159 4 0.0000000000000000e+00 -1.0213970232178799e+02 -1.6636732344519540e+01 -1.2786857990872193e+02 0 0 0
5542 159 4 0.0000000000000000e+00 -9.1672618968592502e+01 -8.6219983069280399e+00 -1.2519921633401623e+02 0 0 0
2088 60 2 0.0000000000000000e+00 -7.1754142962679111e+01 -2.0709213574276887e+01 -1.2269787210755538e+02 0 0 0
1520 44 2 0.0000000000000000e+00 -6.5938606810186471e+01 -1.2158705560146368e+01 -1.1831027202944450e+02 0 0 0
5354 153 4 0.0000000000000000e+00 -4.7840549073946576e+01 -1.3245354190159027e+01 -1.2229659922761965e+02 0 0 0
5355 153 4 0.0000000000000000e+00 -5.3439212638298216e+01 -1.9368557236760388e+01 -1.1723293726152150e+02 0 0 0
1756 51 2 0.0000000000000000e+00 -3.8786621275924695e+01 -9.2994698003378016e+00 -1.2082220902698758e+02 0 0 0
5541 159 3 0.0000000000000000e+00 -9.7017478574632506e+01 -1.1243700861883157e+00 -1.2905705099163234e+02 0 0 0
927 27 2 0.0000000000000000e+00 -9.9317083780987986e+01 6.2730668358556745e+00 -1.1945097983114982e+02 0 0 0
926 27 2 0.0000000000000000e+00 -1.0439971320472549e+02 -2.0315639160464634e+00 -1.2075036884922137e+02 0 0 0
5561 159 4 0.0000000000000000e+00 -7.8961190095151849e+01 1.9201676218307604e+00 -1.2535938388421222e+02 0 0 0
1519 44 2 0.0000000000000000e+00 -6.7889460841196950e+01 -2.4782924503634693e+00 -1.1746192260060020e+02 0 0 0
1518 44 2 0.0000000000000000e+00 -6.8080044471932226e+01 5.0360661883844431e+00 -1.2401848213963275e+02 0 0 0
5353 153 4 0.0000000000000000e+00 -4.9526679693579617e+01 -3.0059944489996107e+00 -1.2184669637887643e+02 0 0 0
1640 47 2 0.0000000000000000e+00 -3.3151873164809373e+01 -2.9827664512993501e+00 -1.2603145118778799e+02 0 0 0
5352 153 3 0.0000000000000000e+00 -4.2151611221497213e+01 1.3849450396957077e+00 -1.1749260763387372e+02 0 0 0
1536 44 2 0.0000000000000000e+00 -1.2396000948768150e+02 1.4829421609111121e+01 -1.2137256180065226e+02 0 0 0
5112 147 4 0.0000000000000000e+00 -1.0685058999510564e+02 1.9359314082411007e+01 -1.2716700551498832e+02 0 0 0
928 27 1 0.0000000000000000e+00 -9.9986357311389284e+01 1.6444055184271757e+01 -1.1968941878602239e+02 0 0 0
2211 64 2 0.0000000000000000e+00 -8.6635063005727531e+01 9.7494869828445783e+00 -1.2206523646223303e+02 0 0 0
6505 186 4 0.0000000000000000e+00 -7.6800300582509408e+01 1.8071270272957872e+01 -1.2407514389482120e+02 0 0 0
5117 147 4 0.0000000000000000e+00 -6.6757162231375005e+01 1.4338071976951598e+01 -1.2395623159693788e+02 0 0 0
5128 147 3 0.0000000000000000e+00 -4.8007165079544215e+01 1.5825352684962922e+01 -1.2949324864827679e+02 0 0 0
5127 147 4 0.0000000000000000e+00 -4.2388993382148399e+01 1.6136013994665458e+01 -1.2155397843035895e+02 0 0 0
1537 44 1 0.0000000000000000e+00 -1.2587258711068826e+02 2.1042097661430276e+01 -1.2889118869462331e+02 0 0 0
6527 187 4 0.0000000000000000e+00 -1.3093766544535677e+02 3.0486064665888460e+01 -1.2374239379920481e+02 0 0 0
6528 187 3 0.0000000000000000e+00 -1.2137714311469857e+02 2.7020948022812110e+01 -1.2081305581591519e+02 0 0 0
6529 187 4 0.0000000000000000e+00 -1.1214458841860920e+02 2.8655637218500463e+01 -1.2347117728507371e+02 0 0 0
5113 147 4 0.0000000000000000e+00 -9.7180264420342255e+01 2.1464505060647834e+01 -1.2935354977366259e+02 0 0 0
6530 187 4 0.0000000000000000e+00 -1.0424408372345526e+02 2.8968571270946107e+01 -1.2981320075068612e+02 0 0 0
929 27 2 0.0000000000000000e+00 -1.0073668016036156e+02 2.6457374162608023e+01 -1.2034602496815759e+02 0 0 0
6506 186 4 0.0000000000000000e+00 -8.5288515855851045e+01 2.0729072630105339e+01 -1.1908339306982312e+02 0 0 0
6504 186 4 0.0000000000000000e+00 -7.4464298408379094e+01 2.7407366604653522e+01 -1.2198899881505804e+02 0 0 0
5129 147 4 0.0000000000000000e+00 -4.5518549377148922e+01 2.5208922768281838e+01 -1.2728428983251383e+02 0 0 0
3383 97 2 0.0000000000000000e+00 -4.8459277168312454e+01 2.5762490900303099e+01 -1.1699400921160492e+02 0 0 0
3384 97 2 0.0000000000000000e+00 -3.8770085608665894e+01 2.6400394848481735e+01 -1.1975564744685261e+02 0 0 0
3385 97 1 0.0000000000000000e+00 -3.0070084681556509e+01 2.6801120386627353e+01 -1.2358642325911519e+02 0 0 0
933 27 2 0.0000000000000000e+00 -1.2981532234630396e+02 4.0615287329807792e+01 -1.2749465466828157e+02 0 0 0
932 27 2 0.0000000000000000e+00 -1.2082114145773131e+02 3.7565630368588145e+01 -1.2553030564603061e+02 0 0 0
931 27 2 0.0000000000000000e+00 -1.1358749191734127e+02 3.9131892124231847e+01 -1.1809625217145158e+02 0 0 0
930 27 2 0.0000000000000000e+00 -1.0545064591651710e+02 3.5432698698204383e+01 -1.2174255863501763e+02 0 0 0
945 27 2 0.0000000000000000e+00 -9.7063645695811104e+01 4.2325180422665390e+01 -1.2494778510584047e+02 0 0 0
6503 186 4 0.0000000000000000e+00 -7.5770088237255479e+01 3.6355664089662000e+01 -1.1751837461567105e+02 0 0 0
5907 169 4 0.0000000000000000e+00 -6.3300791174482249e+01 3.6851077857429324e+01 -1.1803820132823907e+02 0 0 0
5908 169 4 0.0000000000000000e+00 -5.9438379145837047e+01 3.5146770109283523e+01 -1.2704929946115894e+02 0 0 0
5909 169 4 0.0000000000000000e+00 -5.6470431522594502e+01 4.4356413931046546e+01 -1.2776606839009371e+02 0 0 0
5130 147 4 0.0000000000000000e+00 -4.1810994111219834e+01 3.3905332211870196e+01 -1.2652250487784561e+02 0 0 0
5131 147 4 0.0000000000000000e+00 -3.5654513449433722e+01 4.0151546612757031e+01 -1.2268991051885889e+02 0 0 0
6284 180 4 0.0000000000000000e+00 -1.2978660128379497e+02 5.3842879577885256e+01 -1.2444743495463869e+02 0 0 0
6290 180 3 0.0000000000000000e+00 -1.2225033758860152e+02 5.5392876492577045e+01 -1.1680158439442988e+02 0 0 0
943 27 2 0.0000000000000000e+00 -1.0765252867444688e+02 5.7692502733069318e+01 -1.2438002405771405e+02 0 0 0
944 27 2 0.0000000000000000e+00 -1.0257686374828799e+02 4.9995663016707013e+01 -1.2742947872483877e+02 0 0 0
2517 72 1 0.0000000000000000e+00 -9.4434669215979483e+01 5.8719739922196034e+01 -1.2790890461318421e+02 0 0 0
6277 180 4 0.0000000000000000e+00 -8.9344723906617489e+01 5.0866520883119108e+01 -1.3010708402692723e+02 0 0 0
2516 72 2 0.0000000000000000e+00 -9.2936786523976480e+01 5.1135626049420878e+01 -1.2150525654782253e+02 0 0 0
6276 180 3 0.0000000000000000e+00 -8.3281998823787973e+01 5.8137846371440780e+01 -1.2732176551977959e+02 0 0 0
3463 99 2 0.0000000000000000e+00 -8.0247780415908409e+01 5.6305686968658222e+01 -1.1811838874781148e+02 0 0 0
6179 177 4 0.0000000000000000e+00 -6.0742306551174082e+01 5.8905912474272881e+01 -1.2723685764953953e+02 0 0 0
2918 84 2 0.0000000000000000e+00 -6.9285321387164302e+01 5.2906083601196194e+01 -1.2333103691062024e+02 0 0 0
2917 84 2 0.0000000000000000e+00 -6.0614309884503633e+01 4.8895721868751956e+01 -1.1889886560779388e+02 0 0 0
3633 104 4 0.0000000000000000e+00 -3.3619874186125180e+01 4.9431112227572321e+01 -1.2717382264310181e+02 0 0 0
3632 104 4 0.0000000000000000e+00 -3.9467501763252152e+01 5.1720481673293655e+01 -1.1899793928027722e+02 0 0 0
2832 81 1 0.0000000000000000e+00 -4.3205992563543077e+01 -6.8286494680976546e+01 -1.0849446751443861e+02 0 0 0
6234 179 3 0.0000000000000000e+00 -3.2260738275934997e+01 -6.5092810586326650e+01 -1.0509834998160224e+02 0 0 0
2831 81 2 0.0000000000000000e+00 -3.7721821563960319e+01 -6.2397964278710532e+01 -1.1431319828154696e+02 0 0 0
1372 40 2 0.0000000000000000e+00 -7.8737805729318922e+01 -5.0570113485252463e+01 -1.0983854456924456e+02 0 0 0
1371 40 2 0.0000000000000000e+00 -7.4102300920683930e+01 -4.4711156417368279e+01 -1.1671106605463481e+02 0 0 0
1370 40 2 0.0000000000000000e+00 -6.5620157555850867e+01 -4.0687482016051668e+01 -1.1273403728680198e+02 0 0 0
1369 40 1 0.0000000000000000e+00 -6.0492038418592514e+01 -3.5172866432799701e+01 -1.0608902591381468e+02 0 0 0
2093 60 2 0.0000000000000000e+00 -4.6902961106586247e+01 -3.7502605966032945e+01 -1.1293262203605593e+02 0 0 0
2094 60 2 0.0000000000000000e+00 -3.7204518604117311e+01 -3.7834531534675321e+01 -1.0922984071965153e+02 0 0 0
2095 60 2 0.0000000000000000e+00 -2.9172230348682220e+01 -4.2672122574189778e+01 -1.0669103073752233e+02 0 0 0
6245 179 4 0.0000000000000000e+00 -8.3874182287084096e+01 -2.3737400597877873e+01 -1.1335929473449080e+02 0 0 0
6244 179 4 0.0000000000000000e+00 -7.9208587076726644e+01 -2.5639532736252686e+01 -1.0471419281000921e+02 0 0 0
3676 106 4 0.0000000000000000e+00 -6.9027095129878163e+01 -2.8314196734333645e+01 -1.0995638984273128e+02 0 0 0
1368 40 2 0.0000000000000000e+00 -5.5692504874994896e+01 -2.6106460232473001e+01 -1.0493739139196938e+02 0 0 0
5530 158 4 0.0000000000000000e+00 -4.5907505902496737e+01 -3.1574640220061987e+01 -1.0466361790637775e+02 0 0 0
1753 51 2 0.0000000000000000e+00 -3.5190897508073597e+01 -2.1566183489791491e+01 -1.1311541644181116e+02 0 0 0
5543 159 4 0.0000000000000000e+00 -8.7522974672456897e+01 -1.1152544409278820e+01 -1.1629585244807363e+02 0 0 0
5535 159 4 0.0000000000000000e+00 -9.3481987500342186e+01 -1.9855193347742503e+01 -1.0909395149840030e+02 0 0 0