LAMMPS data file via write_data, version 5 Jun 2019, timestep = 460000000

7000 atoms
4 atom types
7278 bonds
3 bond types
6600 angles
2 angle types

-5.0000000000000000e+02 5.0000000000000000e+02 xlo xhi
-5.0000000000000000e+02 5.0000000000000000e+02 ylo yhi
-5.0000000000000000e+02 5.0000000000000000e+02 zlo zhi

Masses

1 1000
2 1000
3 1000
4 1000

Pair Coeffs # lj/cut

1 0.296 10
2 0.296 10
3 0.296 10
4 0.296 10

Angle Coeffs # cosine

1 2
2 2

Atoms # full

2522 73 2 0.0000000000000000e+00 -1.0067217670494996e+02 4.4519897894969553e+01 -1.9166705514193680e+02 0 0 0
2521 73 2 0.0000000000000000e+00 -1.0062692510128780e+02 5.1123770541816306e+01 -1.9893831955463838e+02 0 0 0
5562 159 3 0.0000000000000000e+00 -1.1671263546986165e+02 3.3010780140866807e+01 -1.7523541131375262e+02 0 0 0
2523 73 2 0.0000000000000000e+00 -1.0106073015832249e+02 3.8078091162934342e+01 -1.8357620818191663e+02 0 0 0
2524 73 1 0.0000000000000000e+00 -1.0962317253013421e+02 4.1280087886831645e+01 -1.7887126033264690e+02 0 0 0
5564 159 4 0.0000000000000000e+00 -1.1181028253858935e+02 1.8779767098077269e+01 -1.6364437947878656e+02 0 0 0
5563 159 4 0.0000000000000000e+00 -1.1515638328302090e+02 2.3609826173988356e+01 -1.7173607159137021e+02 0 0 0
2099 60 2 0.0000000000000000e+00 -9.7298441999403209e+01 2.0358182976604873e+01 -1.6190315591109800e+02 0 0 0
2100 60 2 0.0000000000000000e+00 -9.6300202069176819e+01 2.2039615994633699e+01 -1.7147449479943899e+02 0 0 0
5561 159 4 0.0000000000000000e+00 -1.1946151332228025e+02 3.6159451292090388e+01 -1.6609849312631172e+02 0 0 0
2525 73 2 0.0000000000000000e+00 -1.0959657159877814e+02 3.7715484985728359e+01 -1.6904496348119409e+02 0 0 0
5445 156 4 0.0000000000000000e+00 -5.3177334321585668e+01 3.0723846155217558e+01 -1.6216774630608126e+02 0 0 0
3027 87 2 0.0000000000000000e+00 -5.4411318510399639e+01 5.1340793093836197e+01 -1.6397784650510994e+02 0 0 0
3025 87 2 0.0000000000000000e+00 -6.2698310824138709e+01 6.6970432570315381e+01 -1.6277570096373287e+02 0 0 0
3026 87 2 0.0000000000000000e+00 -5.6291351602122994e+01 6.0432070011450023e+01 -1.6791702569317383e+02 0 0 0
2084 60 2 0.0000000000000000e+00 -9.7986281685847089e+01 -3.4061003470362579e+01 -1.4596692945503068e+02 0 0 0
2091 60 2 0.0000000000000000e+00 -6.0028626282600690e+01 -3.0650039518794877e+01 -1.4660870022632739e+02 0 0 0
2094 60 2 0.0000000000000000e+00 -8.4330281977538363e+01 -1.6093435398995975e+01 -1.5495655366927562e+02 0 0 0
2093 60 2 0.0000000000000000e+00 -7.6227279061432142e+01 -2.2259506809044414e+01 -1.5562496523758426e+02 0 0 0
2092 60 2 0.0000000000000000e+00 -6.7593463604038718e+01 -2.7136212184630480e+01 -1.5217981968480643e+02 0 0 0
2095 60 2 0.0000000000000000e+00 -8.8241421000801111e+01 -7.2440194329219079e+00 -1.5350088903299090e+02 0 0 0
2096 60 2 0.0000000000000000e+00 -9.4503179512368902e+01 4.6502863329398153e-01 -1.5334013450643477e+02 0 0 0
2097 60 1 0.0000000000000000e+00 -9.8834953238686140e+01 9.0258782275230356e+00 -1.5446925789189771e+02 0 0 0
6324 181 4 0.0000000000000000e+00 -8.7588405605911817e+01 6.1905767942443566e+00 -1.4898116815442239e+02 0 0 0
6323 181 4 0.0000000000000000e+00 -8.0251104448878237e+01 1.8084860768044722e-01 -1.4859459694195039e+02 0 0 0
5559 159 4 0.0000000000000000e+00 -1.2581793254572767e+02 2.5346230947373400e+01 -1.5254128514204220e+02 0 0 0
5565 159 4 0.0000000000000000e+00 -1.1300629050599312e+02 2.2367541776000031e+01 -1.5442032618707145e+02 0 0 0
2098 60 2 0.0000000000000000e+00 -1.0313853340128080e+02 1.7605037277860720e+01 -1.5372294709354722e+02 0 0 0
5560 159 4 0.0000000000000000e+00 -1.2340195801877475e+02 3.3643907184249002e+01 -1.5759331153522069e+02 0 0 0
2526 73 2 0.0000000000000000e+00 -1.1004720137421873e+02 3.6376097049804152e+01 -1.5923205656885293e+02 0 0 0
2527 73 2 0.0000000000000000e+00 -1.1422904475174334e+02 3.2253467386034615e+01 -1.5102482024596546e+02 0 0 0
6236 179 4 0.0000000000000000e+00 -1.0316408764244856e+02 2.6881364027722334e+01 -1.4745891992037124e+02 0 0 0
6235 179 4 0.0000000000000000e+00 -1.0136748802435302e+02 3.6430207583354665e+01 -1.5064899194166873e+02 0 0 0
5444 156 4 0.0000000000000000e+00 -5.6380472864584263e+01 3.8250365837497149e+01 -1.5838364040997223e+02 0 0 0
5446 156 4 0.0000000000000000e+00 -4.5199061696254446e+01 2.6786259771382841e+01 -1.5647736795075653e+02 0 0 0
5447 156 4 0.0000000000000000e+00 -3.7151240517298966e+01 2.8629885128751518e+01 -1.5146667455756094e+02 0 0 0
6234 179 3 0.0000000000000000e+00 -9.9691232446267236e+01 4.6104178986058130e+01 -1.4949018802234892e+02 0 0 0
5443 156 3 0.0000000000000000e+00 -5.9262411244551835e+01 4.0753933181881109e+01 -1.4895551818954351e+02 0 0 0
3028 87 1 0.0000000000000000e+00 -5.2305599077351076e+01 4.8458171596294306e+01 -1.5349815293544648e+02 0 0 0
3029 87 2 0.0000000000000000e+00 -4.7338101228742211e+01 4.2047325374310617e+01 -1.4659455278115402e+02 0 0 0
6231 179 4 0.0000000000000000e+00 -1.2292076234977793e+02 5.6205780959628171e+01 -1.5409442102381186e+02 0 0 0
6232 179 4 0.0000000000000000e+00 -1.1291775457127416e+02 5.6598429813001594e+01 -1.5153218441058240e+02 0 0 0
6233 179 4 0.0000000000000000e+00 -1.0421521905820806e+02 5.4273553164195341e+01 -1.4686986074102884e+02 0 0 0
1641 47 2 0.0000000000000000e+00 -9.9211415640854796e+01 6.5809073142647605e+01 -1.5046225527720659e+02 0 0 0
2086 60 2 0.0000000000000000e+00 -9.0387731317068486e+01 -4.6177020796483561e+01 -1.3247655505161310e+02 0 0 0
6264 179 4 0.0000000000000000e+00 -8.2717993941938175e+01 -4.6980368706416492e+01 -1.3990878946559161e+02 0 0 0
2083 60 1 0.0000000000000000e+00 -1.0590794287045470e+02 -2.9529563008924402e+01 -1.4220789264469985e+02 0 0 0
2085 60 2 0.0000000000000000e+00 -9.1677398743191219e+01 -3.7894115318073048e+01 -1.3880757690641033e+02 0 0 0
6512 187 4 0.0000000000000000e+00 -1.0300080734712708e+02 -3.9058053707574864e+01 -1.3300163885289416e+02 0 0 0
6513 187 4 0.0000000000000000e+00 -9.8927402593423338e+01 -3.0184083031568708e+01 -1.3572574256468735e+02 0 0 0
6263 179 4 0.0000000000000000e+00 -8.2111889484135659e+01 -3.8545366066924025e+01 -1.4555432358907134e+02 0 0 0
6262 179 3 0.0000000000000000e+00 -7.5243176960002558e+01 -3.2059480052026544e+01 -1.4224759601809802e+02 0 0 0
2090 60 1 0.0000000000000000e+00 -6.5042773321555813e+01 -3.4819536730004835e+01 -1.3955834524998446e+02 0 0 0
2089 60 2 0.0000000000000000e+00 -7.0530200559126996e+01 -3.8787471507781191e+01 -1.3305958082857174e+02 0 0 0
6514 187 3 0.0000000000000000e+00 -9.7654433304737054e+01 -2.2098733404816034e+01 -1.4133624124632300e+02 0 0 0
6515 187 4 0.0000000000000000e+00 -8.9777068642343821e+01 -1.6757190187740306e+01 -1.4300276087781302e+02 0 0 0
6260 179 4 0.0000000000000000e+00 -8.2817749248207022e+01 -2.1225808971816555e+01 -1.3637151383738191e+02 0 0 0
6261 179 4 0.0000000000000000e+00 -7.4927063345717272e+01 -2.1960888881726188e+01 -1.4190334898696375e+02 0 0 0
6327 181 4 0.0000000000000000e+00 -1.0378931350956950e+02 -3.3063100576224329e+00 -1.3645923091495209e+02 0 0 0
6516 187 4 0.0000000000000000e+00 -8.7175366921373751e+01 -7.2320008939135771e+00 -1.4002581930822160e+02 0 0 0
6322 181 4 0.0000000000000000e+00 -7.3975136558687012e+01 -1.0059870143398895e+00 -1.4011963570851910e+02 0 0 0
6321 181 4 0.0000000000000000e+00 -6.7791185362956156e+01 -6.3802049208752702e+00 -1.3434685397261336e+02 0 0 0
6325 181 3 0.0000000000000000e+00 -9.4974113774348837e+01 1.0299602874504174e+01 -1.4403980050438653e+02 0 0 0
6326 181 4 0.0000000000000000e+00 -1.0163217745588820e+02 6.4139791434426821e+00 -1.3775422333892240e+02 0 0 0
6517 187 4 0.0000000000000000e+00 -8.3354089170241735e+01 1.9731010492565009e+00 -1.3667881605396715e+02 0 0 0
6518 187 4 0.0000000000000000e+00 -7.6140734239064003e+01 8.3837102527771368e+00 -1.3324958928261614e+02 0 0 0
2826 81 2 0.0000000000000000e+00 -6.5280920227796926e+01 1.1589592339759843e+01 -1.3354680719053232e+02 0 0 0
5557 159 4 0.0000000000000000e+00 -1.3254516337805563e+02 1.5624120061044380e+01 -1.3951114750226887e+02 0 0 0
5556 159 4 0.0000000000000000e+00 -1.4044799899022166e+02 1.4558327710057592e+01 -1.3411150581208761e+02 0 0 0
5558 159 4 0.0000000000000000e+00 -1.2687204642830271e+02 2.2730907335574344e+01 -1.4282266822747977e+02 0 0 0
2529 73 2 0.0000000000000000e+00 -1.1848441153444514e+02 1.9923878886876093e+01 -1.3579052333710158e+02 0 0 0
6238 179 4 0.0000000000000000e+00 -1.0596439145259278e+02 2.0220809391894267e+01 -1.3480381009971549e+02 0 0 0
6237 179 4 0.0000000000000000e+00 -1.0464097865811711e+02 1.7719129168706097e+01 -1.4391165150843347e+02 0 0 0
2528 73 2 0.0000000000000000e+00 -1.1544028954247202e+02 2.4911634440756494e+01 -1.4377502381377295e+02 0 0 0
2829 81 2 0.0000000000000000e+00 -8.2658604761157036e+01 1.8414499996018716e+01 -1.3941049001288943e+02 0 0 0
2830 81 2 0.0000000000000000e+00 -8.9593728860055961e+01 2.5217771780262833e+01 -1.3938159169519855e+02 0 0 0
2828 81 2 0.0000000000000000e+00 -7.4164509038920627e+01 1.7292453024490531e+01 -1.4400415958759658e+02 0 0 0
2827 81 2 0.0000000000000000e+00 -6.4322891141501529e+01 1.4377064663602960e+01 -1.4281594125433247e+02 0 0 0
1634 47 2 0.0000000000000000e+00 -5.9877640066709972e+01 2.0732586899226387e+01 -1.3291506149667117e+02 0 0 0
1630 47 2 0.0000000000000000e+00 -3.6922630859012848e+01 1.9767894631604769e+01 -1.3389122596637711e+02 0 0 0
3031 87 2 0.0000000000000000e+00 -4.5078344794344972e+01 2.5186503885585896e+01 -1.3693037468450183e+02 0 0 0
1532 44 2 0.0000000000000000e+00 -1.4152424954367586e+02 3.6105842300494466e+01 -1.3391041214619622e+02 0 0 0
6544 187 4 0.0000000000000000e+00 -1.2299471962710389e+02 3.1048941777795754e+01 -1.3585091421504589e+02 0 0 0
6545 187 4 0.0000000000000000e+00 -1.2139365507398686e+02 3.7304511519822221e+01 -1.4317424472223456e+02 0 0 0
2072 60 2 0.0000000000000000e+00 -1.1178831183006507e+02 3.9612893959498820e+01 -1.3480375243290885e+02 0 0 0
2831 81 2 0.0000000000000000e+00 -9.5978599382319373e+01 3.2538325126352220e+01 -1.3955548502998576e+02 0 0 0
6522 187 4 0.0000000000000000e+00 -9.0968200150360715e+01 4.0183644547447209e+01 -1.3656581379936418e+02 0 0 0
6521 187 3 0.0000000000000000e+00 -8.1038930820471080e+01 3.7296884248430644e+01 -1.3383134523198342e+02 0 0 0
6520 187 4 0.0000000000000000e+00 -7.7257099067069220e+01 2.7594603997916906e+01 -1.3332280936929365e+02 0 0 0
1635 47 1 0.0000000000000000e+00 -6.7244208148640595e+01 2.7547948595399294e+01 -1.3356946083489680e+02 0 0 0
5091 146 4 0.0000000000000000e+00 -5.2739769116680151e+01 3.8572967401848764e+01 -1.3235776844742497e+02 0 0 0
3030 87 2 0.0000000000000000e+00 -4.5361704562269871e+01 3.3987920380677082e+01 -1.4164733732793539e+02 0 0 0
1533 44 2 0.0000000000000000e+00 -1.3602333388691366e+02 4.1984017784300981e+01 -1.4018957964465451e+02 0 0 0
1534 44 2 0.0000000000000000e+00 -1.2798797268904150e+02 4.8134117798538007e+01 -1.3816159860227833e+02 0 0 0
1535 44 2 0.0000000000000000e+00 -1.1990393431540464e+02 5.1358902628662996e+01 -1.3396060006912003e+02 0 0 0
2833 81 2 0.0000000000000000e+00 -1.0583953616719806e+02 4.9455929919438404e+01 -1.3704924777796313e+02 0 0 0
2832 81 1 0.0000000000000000e+00 -1.0064754157541988e+02 4.0801926226281481e+01 -1.3995836446221475e+02 0 0 0
6523 187 4 0.0000000000000000e+00 -9.5445327109156992e+01 4.9443696938415890e+01 -1.3587723646567142e+02 0 0 0
5442 156 4 0.0000000000000000e+00 -6.1897908294541836e+01 4.9196811055490834e+01 -1.4515543114695208e+02 0 0 0
5092 146 4 0.0000000000000000e+00 -5.3545733382220426e+01 4.8139024305827576e+01 -1.3612783672320455e+02 0 0 0
2922 84 2 0.0000000000000000e+00 -1.3373298463017292e+02 6.2998865609143770e+01 -1.3535051656981346e+02 0 0 0
2835 81 2 0.0000000000000000e+00 -1.2106142926507466e+02 6.1695567969895329e+01 -1.3939206548749380e+02 0 0 0
2834 81 2 0.0000000000000000e+00 -1.1142527559883690e+02 5.8320478076967241e+01 -1.3818581092761212e+02 0 0 0
1640 47 2 0.0000000000000000e+00 -9.4528327841079459e+01 5.8851992612010100e+01 -1.4476785608838767e+02 0 0 0
6524 187 4 0.0000000000000000e+00 -9.9006594082215557e+01 5.8351622646719619e+01 -1.3516575665747629e+02 0 0 0
6525 187 4 0.0000000000000000e+00 -1.0346034622485966e+02 6.6369191168491540e+01 -1.3300720779227953e+02 0 0 0
1639 47 2 0.0000000000000000e+00 -8.8328566668107925e+01 5.6120754098293439e+01 -1.3751500194139385e+02 0 0 0
5133 147 4 0.0000000000000000e+00 -7.9803820552157973e+01 6.4518081006555292e+01 -1.3483006763225009e+02 0 0 0
5441 156 4 0.0000000000000000e+00 -6.8284843317560359e+01 5.5768900045657432e+01 -1.4172808550497328e+02 0 0 0
5440 156 4 0.0000000000000000e+00 -7.0597495533578467e+01 6.5235814630600544e+01 -1.4045141407896324e+02 0 0 0
4746 136 4 0.0000000000000000e+00 -6.2027634694909338e+01 5.4894012210674539e+01 -1.3393652924653273e+02 0 0 0
4747 136 4 0.0000000000000000e+00 -5.9629848898099588e+01 6.2952836456870337e+01 -1.3977925104498266e+02 0 0 0
5093 146 3 0.0000000000000000e+00 -5.1371203802430031e+01 5.6369163439468139e+01 -1.4104953005730238e+02 0 0 0
5094 146 4 0.0000000000000000e+00 -4.8830240478944148e+01 6.5729932300429866e+01 -1.3983644463408658e+02 0 0 0
1762 51 2 0.0000000000000000e+00 -3.5627862005564317e+01 6.6860379623281034e+01 -1.4142237750667388e+02 0 0 0
6511 187 4 0.0000000000000000e+00 -1.0329577084614924e+02 -4.7171790998267170e+01 -1.2722075194649230e+02 0 0 0
6265 179 4 0.0000000000000000e+00 -7.9987939856286204e+01 -5.2036821986324519e+01 -1.3223049503507704e+02 0 0 0
2087 60 2 0.0000000000000000e+00 -8.2043312211436501e+01 -4.4086891535721946e+01 -1.2774967484622344e+02 0 0 0
2088 60 2 0.0000000000000000e+00 -7.2882233645384602e+01 -4.6216989356346602e+01 -1.2664503878890611e+02 0 0 0
211 7 2 0.0000000000000000e+00 -5.4469784445889893e+01 -4.4669825248442109e+01 -1.2976513841285671e+02 0 0 0
2082 60 2 0.0000000000000000e+00 -1.0808016962333042e+02 -2.9153220379159350e+01 -1.3208733357569011e+02 0 0 0
6258 179 4 0.0000000000000000e+00 -7.6167838074293584e+01 -3.4724412142931953e+01 -1.2429848732094887e+02 0 0 0
213 7 2 0.0000000000000000e+00 -6.5223253145070032e+01 -3.1197928066291425e+01 -1.2639751848982139e+02 0 0 0
212 7 2 0.0000000000000000e+00 -5.7643359726936843e+01 -3.5291427083926230e+01 -1.3079493346954092e+02 0 0 0
2081 60 2 0.0000000000000000e+00 -1.0793775339759817e+02 -2.4312593421944054e+01 -1.2315528739150008e+02 0 0 0
1366 40 2 0.0000000000000000e+00 -8.4911172898520633e+01 -1.4597195200039017e+01 -1.2093470615792636e+02 0 0 0
6259 179 4 0.0000000000000000e+00 -7.8562491339433862e+01 -2.6205727521328718e+01 -1.2902901392511845e+02 0 0 0
214 7 1 0.0000000000000000e+00 -6.6376275833216710e+01 -2.2075898367627946e+01 -1.2163280099212648e+02 0 0 0
6328 181 4 0.0000000000000000e+00 -9.7447282328203130e+01 -7.4984014767587412e+00 -1.3092060998592279e+02 0 0 0
6329 181 4 0.0000000000000000e+00 -9.0237561530736059e+01 -1.2282947293790112e+00 -1.2695969957516616e+02 0 0 0
6320 181 4 0.0000000000000000e+00 -6.3446348546438216e+01 -7.6139001161327817e+00 -1.2526497696605904e+02 0 0 0
3915 112 4 0.0000000000000000e+00 -3.5761220907868498e+01 -1.0149706649550568e+01 -1.2931278126901390e+02 0 0 0
3916 112 4 0.0000000000000000e+00 -4.2522329206673739e+01 -6.3724869315336363e+00 -1.2258077256288227e+02 0 0 0
5531 159 4 0.0000000000000000e+00 -1.7262946741527179e+02 6.5978763959778659e+00 -1.2578486385142671e+02 0 0 0
5532 159 4 0.0000000000000000e+00 -1.6410393879675883e+02 1.2155249650850783e+01 -1.2327746827722491e+02 0 0 0
2077 60 2 0.0000000000000000e+00 -1.0624122962272338e+02 3.0517946176050765e+00 -1.2285071993907384e+02 0 0 0
2076 60 1 0.0000000000000000e+00 -1.1005383490233375e+02 1.1498508702784992e+01 -1.1878428291007570e+02 0 0 0
6330 181 4 0.0000000000000000e+00 -8.5138187446955101e+01 3.2113560118032707e+00 -1.1979654411426607e+02 0 0 0
6331 181 4 0.0000000000000000e+00 -7.8729732256031511e+01 1.0560080728954658e+01 -1.1871213377955773e+02 0 0 0
2825 81 1 0.0000000000000000e+00 -6.6027026514072503e+01 5.9900808461960766e+00 -1.2543060551776122e+02 0 0 0
1632 47 2 0.0000000000000000e+00 -4.9328289131234619e+01 1.1534175592651016e+01 -1.2160648711172564e+02 0 0 0
1633 47 2 0.0000000000000000e+00 -5.4644677224392261e+01 1.3188846133603041e+01 -1.2990927008459050e+02 0 0 0
3394 97 2 0.0000000000000000e+00 -3.9745262462699671e+01 2.6894323481663003e+00 -1.2966810253592871e+02 0 0 0
3393 97 2 0.0000000000000000e+00 -4.1289337861906397e+01 4.9231420525413618e+00 -1.1973172439298794e+02 0 0 0
5555 159 3 0.0000000000000000e+00 -1.4217398341628567e+02 1.6515435369628165e+01 -1.2454107628548745e+02 0 0 0
2531 73 1 0.0000000000000000e+00 -1.3142091390877988e+02 1.4748691823520991e+01 -1.2330083824701366e+02 0 0 0
6543 187 4 0.0000000000000000e+00 -1.2843812309687669e+02 2.5338473832956591e+01 -1.3006929728787736e+02 0 0 0
2530 73 2 0.0000000000000000e+00 -1.2323439598540605e+02 1.6292482242338480e+01 -1.2858992127760624e+02 0 0 0
2075 60 2 0.0000000000000000e+00 -1.1480724277530112e+02 2.0349143771922183e+01 -1.2066625966368640e+02 0 0 0
6240 179 4 0.0000000000000000e+00 -9.8741713308203614e+01 1.5239362171377824e+01 -1.1979081667341478e+02 0 0 0
6239 179 4 0.0000000000000000e+00 -9.8843894633839071e+01 1.6023197224233723e+01 -1.2920957717976344e+02 0 0 0
6519 187 4 0.0000000000000000e+00 -7.4153626033920403e+01 1.8559637041094394e+01 -1.3197362828978001e+02 0 0 0
6333 181 4 0.0000000000000000e+00 -6.2301451227448617e+01 2.0013011944526479e+01 -1.1912573783961355e+02 0 0 0
1631 47 2 0.0000000000000000e+00 -4.0290763595431599e+01 1.4953328986536603e+01 -1.2539695610323479e+02 0 0 0
3032 87 2 0.0000000000000000e+00 -4.7376607399504266e+01 2.3212295747541024e+01 -1.2698557558421226e+02 0 0 0
3033 87 2 0.0000000000000000e+00 -4.2204090190433021e+01 2.5559477235983444e+01 -1.1885942349382027e+02 0 0 0
6542 187 3 0.0000000000000000e+00 -1.3658661771728248e+02 2.7507893848995611e+01 -1.2442614240448667e+02 0 0 0
1531 44 2 0.0000000000000000e+00 -1.4438422647323637e+02 3.2642868184829865e+01 -1.2502615531920694e+02 0 0 0
2073 60 2 0.0000000000000000e+00 -1.1851659106570041e+02 3.7847951371857086e+01 -1.2839956793526710e+02 0 0 0
6895 197 4 0.0000000000000000e+00 -1.2647793521912104e+02 2.9296168824011641e+01 -1.2027691273310111e+02 0 0 0
2074 60 2 0.0000000000000000e+00 -1.1823950684884089e+02 2.7655679618474007e+01 -1.2621567770501387e+02 0 0 0
2071 60 2 0.0000000000000000e+00 -1.0521675170403678e+02 3.4931925935319178e+01 -1.2961079408246061e+02 0 0 0
2070 60 2 0.0000000000000000e+00 -9.5235156960588029e+01 3.3590525967808915e+01 -1.2790692642391427e+02 0 0 0
2068 60 2 0.0000000000000000e+00 -8.2265564091381222e+01 2.6732415109185908e+01 -1.1982204467285727e+02 0 0 0
2069 60 1 0.0000000000000000e+00 -8.6582274563523143e+01 2.9105056839581994e+01 -1.2819164646990089e+02 0 0 0
1506 44 2 0.0000000000000000e+00 -7.6733204013484510e+01 3.5661696960943267e+01 -1.2133098365951254e+02 0 0 0
1636 47 2 0.0000000000000000e+00 -7.0781412339984342e+01 3.6643275259092789e+01 -1.3146914598348755e+02 0 0 0
4744 136 4 0.0000000000000000e+00 -6.3229065960325919e+01 3.8897706706169537e+01 -1.2245650896856041e+02 0 0 0
4743 136 3 0.0000000000000000e+00 -6.6959956713180432e+01 2.9506518831470501e+01 -1.2233813631399406e+02 0 0 0
5090 146 4 0.0000000000000000e+00 -5.4538482528466226e+01 3.3424678756715650e+01 -1.2359361818451271e+02 0 0 0
595 17 2 0.0000000000000000e+00 -1.6500474483956145e+02 4.3205072499568288e+01 -1.2153221420228967e+02 0 0 0
1732 50 2 0.0000000000000000e+00 -1.5858113333028791e+02 5.0483204011936138e+01 -1.2237312620452524e+02 0 0 0
2924 84 2 0.0000000000000000e+00 -1.3329460064535633e+02 4.8764824159742020e+01 -1.2378264509489595e+02 0 0 0
6893 197 4 0.0000000000000000e+00 -1.2122756104252898e+02 4.6785092361862510e+01 -1.2197806295919939e+02 0 0 0
1638 47 2 0.0000000000000000e+00 -8.0679094573193211e+01 5.1738319513913325e+01 -1.3217142223277031e+02 0 0 0
1637 47 2 0.0000000000000000e+00 -7.2639340459400970e+01 4.6364688744724681e+01 -1.2914592804595031e+02 0 0 0
4745 136 4 0.0000000000000000e+00 -6.1825026614595494e+01 4.5559247591391028e+01 -1.2982143094658608e+02 0 0 0
3012 87 2 0.0000000000000000e+00 -4.4057436903771908e+01 4.4316675233989493e+01 -1.2279544013252098e+02 0 0 0
3013 87 2 0.0000000000000000e+00 -4.3876300741198776e+01 5.2060568656589496e+01 -1.2935055796355931e+02 0 0 0
1731 50 2 0.0000000000000000e+00 -1.5108851400516988e+02 5.6377530270327568e+01 -1.2625953114359859e+02 0 0 0
1730 50 2 0.0000000000000000e+00 -1.5292248328424998e+02 6.5878713952540863e+01 -1.2605360647878642e+02 0 0 0
2923 84 1 0.0000000000000000e+00 -1.3373694235855879e+02 5.4145710104121797e+01 -1.3141683248323113e+02 0 0 0
6891 197 4 0.0000000000000000e+00 -1.3390964358691156e+02 6.0306994757993998e+01 -1.2182799497759953e+02 0 0 0
6890 197 4 0.0000000000000000e+00 -1.4238513370140936e+02 6.6996881581543576e+01 -1.2245558107617094e+02 0 0 0
6892 197 3 0.0000000000000000e+00 -1.2560428714562298e+02 5.5587116128607533e+01 -1.2286161799131763e+02 0 0 0
1536 44 2 0.0000000000000000e+00 -1.1752139057875384e+02 6.0114741693958727e+01 -1.2977590714522000e+02 0 0 0
2208 64 2 0.0000000000000000e+00 -1.1344307565667708e+02 6.5869849624238171e+01 -1.1995895725825504e+02 0 0 0
5355 153 4 0.0000000000000000e+00 -8.9375163456782644e+01 6.3866887729658686e+01 -1.2050435908809919e+02 0 0 0
5132 147 4 0.0000000000000000e+00 -7.9996266760146710e+01 6.2683176355242956e+01 -1.2470250336676210e+02 0 0 0
5351 153 4 0.0000000000000000e+00 -6.4231577767739481e+01 5.5307420700159071e+01 -1.2241755691139160e+02 0 0 0
5350 153 4 0.0000000000000000e+00 -5.4186332294053834e+01 5.7496943281131223e+01 -1.2340276402882128e+02 0 0 0
3014 87 1 0.0000000000000000e+00 -4.8219697490087569e+01 6.0605766900473874e+01 -1.3104742006315286e+02 0 0 0
6476 186 4 0.0000000000000000e+00 -4.1336171044978350e+01 6.3593371103946239e+01 -1.2199626097513584e+02 0 0 0
6249 179 4 0.0000000000000000e+00 -9.3047900124110058e+01 -4.4417907680562656e+01 -1.1235593486236732e+02 0 0 0
6257 179 4 0.0000000000000000e+00 -7.6911717152610052e+01 -4.1345504493078423e+01 -1.1685808187899025e+02 0 0 0
6247 179 4 0.0000000000000000e+00 -9.6537723124442877e+01 -2.7385212906294658e+01 -1.0865394506476026e+02 0 0 0
6248 179 3 0.0000000000000000e+00 -9.1559215232390542e+01 -3.4353519998458395e+01 -1.1431415265142249e+02 0 0 0
6256 179 4 0.0000000000000000e+00 -8.1481233279392669e+01 -3.5914659082161450e+01 -1.0945433498500653e+02 0 0 0
2816 81 2 0.0000000000000000e+00 -6.6442513023380187e+01 -3.0858734740160653e+01 -1.1379129367938820e+02 0 0 0
2080 60 2 0.0000000000000000e+00 -1.0410487307884192e+02 -1.5995010016759158e+01 -1.1784981897894491e+02 0 0 0
6245 179 4 0.0000000000000000e+00 -1.1184378861238399e+02 -1.7939860246368369e+01 -1.0917302274541809e+02 0 0 0
2819 81 2 0.0000000000000000e+00 -9.1206281636714962e+01 -1.8991923528023271e+01 -1.1308254671799982e+02 0 0 0
2818 81 1 0.0000000000000000e+00 -8.4090775057863837e+01 -2.6163921771062110e+01 -1.1301855061328034e+02 0 0 0
2817 81 2 0.0000000000000000e+00 -7.4952300929478412e+01 -2.6879517571143893e+01 -1.1699843178943144e+02 0 0 0
215 7 2 0.0000000000000000e+00 -7.1156044891774144e+01 -1.7493556063135930e+01 -1.1433616782048419e+02 0 0 0
216 7 2 0.0000000000000000e+00 -6.6303158073228147e+01 -1.8790019090563693e+01 -1.0596504735013029e+02 0 0 0
6317 181 4 0.0000000000000000e+00 -5.9784142683140921e+01 -2.6576822699630728e+01 -1.0662333309084474e+02 0 0 0
6318 181 3 0.0000000000000000e+00 -5.9117071539995329e+01 -1.8971614275567116e+01 -1.1288522598527000e+02 0 0 0
4837 139 4 0.0000000000000000e+00 -5.0301166109511534e+01 -2.0048841955208122e+01 -1.0690023157613048e+02 0 0 0
4836 139 4 0.0000000000000000e+00 -4.2587019048921107e+01 -2.0773764155516169e+01 -1.1386600295330626e+02 0 0 0
6244 179 4 0.0000000000000000e+00 -1.1230011358170331e+02 -8.4022052234655966e+00 -1.1317678011406149e+02 0 0 0
2078 60 2 0.0000000000000000e+00 -9.7965947910177817e+01 -1.4865571719029205e+00 -1.1744831246891060e+02 0 0 0
2079 60 2 0.0000000000000000e+00 -1.0163778767591839e+02 -8.6349168074692386e+00 -1.1099545042428942e+02 0 0 0
1367 40 2 0.0000000000000000e+00 -9.0447704676202477e+01 -8.9030292696588873e+00 -1.1514686304373944e+02 0 0 0
1368 40 2 0.0000000000000000e+00 -8.7314878465144986e+01 -1.2356671719305417e+00 -1.0946798733665403e+02 0 0 0
2823 81 2 0.0000000000000000e+00 -7.3059326101811962e+01 -1.9160669303440474e+00 -1.0867901902763602e+02 0 0 0
6319 181 4 0.0000000000000000e+00 -5.6592487677514583e+01 -1.1136657672641345e+01 -1.1858715582020506e+02 0 0 0
2634 76 2 0.0000000000000000e+00 -6.2489259962025635e+01 -8.0597948479135066e+00 -1.0992599886924454e+02 0 0 0
3917 112 3 0.0000000000000000e+00 -5.0434406052601794e+01 -1.7811929895942866e+00 -1.1820682133952393e+02 0 0 0
2635 76 2 0.0000000000000000e+00 -5.3804658182686488e+01 -1.0543341321888354e+01 -1.0699222934916224e+02 0 0 0
2636 76 1 0.0000000000000000e+00 -4.4496898327911083e+01 -6.2332394740297312e+00 -1.0690393314084335e+02 0 0 0
2637 76 2 0.0000000000000000e+00 -3.5972897621653146e+01 -4.4592380448748363e+00 -1.1201547752178585e+02 0 0 0
2532 73 2 0.0000000000000000e+00 -1.3610431291481231e+02 1.1216374581675407e+01 -1.1512334231775843e+02 0 0 0
2533 73 2 0.0000000000000000e+00 -1.3296542843229119e+02 1.0701815241873241e+01 -1.0613199909732428e+02 0 0 0
5323 153 4 0.0000000000000000e+00 -1.2016625840249144e+02 3.6520623618964412e+00 -1.0539815762494692e+02 0 0 0
5324 153 3 0.0000000000000000e+00 -1.1518802295704552e+02 1.1945121744487734e+01 -1.0860781294771472e+02 0 0 0
6243 179 4 0.0000000000000000e+00 -1.1150684457349185e+02 1.6656361925144745e+00 -1.1194722064577370e+02 0 0 0
1369 40 1 0.0000000000000000e+00 -9.6026083051202122e+01 2.6292984158769954e+00 -1.0756907552432394e+02 0 0 0
6241 179 3 0.0000000000000000e+00 -1.0266813147192653e+02 9.2853641525865420e+00 -1.1292929848535438e+02 0 0 0
4740 136 4 0.0000000000000000e+00 -8.2231406073718730e+01 9.6988665240746936e+00 -1.0677226286355396e+02 0 0 0
2824 81 2 0.0000000000000000e+00 -6.8469229857515657e+01 2.8890722820153418e+00 -1.1620890100291520e+02 0 0 0
3919 112 4 0.0000000000000000e+00 -6.3460526142945753e+01 5.7431131418774823e+00 -1.0600990933555187e+02 0 0 0
3918 112 4 0.0000000000000000e+00 -5.6226165327341249e+01 3.6589769148654545e+00 -1.1231675404476516e+02 0 0 0
3391 97 2 0.0000000000000000e+00 -5.1439125114830560e+01 1.2169767699899582e+01 -1.0667226561318900e+02 0 0 0
3392 97 1 0.0000000000000000e+00 -4.5903211699461508e+01 5.8296367436957457e+00 -1.1143444718009020e+02 0 0 0
5533 159 4 0.0000000000000000e+00 -1.5721789879538736e+02 1.7011480256036581e+01 -1.1777581860136924e+02 0 0 0
5534 159 3 0.0000000000000000e+00 -1.5123011906073000e+02 2.4851376743704250e+01 -1.1801297589719383e+02 0 0 0
5553 159 4 0.0000000000000000e+00 -1.4934685029934468e+02 1.6540010806076189e+01 -1.0679824593577010e+02 0 0 0
5535 159 4 0.0000000000000000e+00 -1.5622966192236450e+02 2.6460499934540842e+01 -1.0953875706156708e+02 0 0 0
5554 159 4 0.0000000000000000e+00 -1.4353732617868468e+02 1.8452491214473405e+01 -1.1469653123709080e+02 0 0 0
6541 187 4 0.0000000000000000e+00 -1.3686680424520659e+02 2.6527574580401161e+01 -1.1446469448823886e+02 0 0 0
6540 187 4 0.0000000000000000e+00 -1.3650542801193066e+02 2.0773018274075159e+01 -1.0625510613335429e+02 0 0 0
5530 158 4 0.0000000000000000e+00 -1.0831012475895047e+02 2.2987797594919900e+01 -1.0799158815363614e+02 0 0 0
2067 60 2 0.0000000000000000e+00 -8.0993392303433495e+01 2.6144588077787095e+01 -1.1029052322368989e+02 0 0 0
6332 181 3 0.0000000000000000e+00 -6.9086970980240949e+01 1.3312022538429638e+01 -1.1760734532140559e+02 0 0 0
4741 136 4 0.0000000000000000e+00 -7.5210760812681130e+01 1.6256578240758614e+01 -1.0915914934164486e+02 0 0 0
4742 136 4 0.0000000000000000e+00 -7.1538429702481352e+01 2.2840693884682153e+01 -1.1573991903264165e+02 0 0 0
5088 146 4 0.0000000000000000e+00 -5.1362187461321248e+01 1.9362018829295245e+01 -1.1591884161088403e+02 0 0 0
6334 181 4 0.0000000000000000e+00 -6.0703760109707829e+01 2.1691005146907223e+01 -1.0928117289037777e+02 0 0 0
3390 97 2 0.0000000000000000e+00 -4.7417356416150845e+01 2.1347722977670315e+01 -1.0659406005123579e+02 0 0 0
5087 146 4 0.0000000000000000e+00 -4.2465112801085304e+01 1.4651574312712205e+01 -1.1413495819231518e+02 0 0 0
3034 87 2 0.0000000000000000e+00 -3.7432663789036724e+01 2.1675668327761496e+01 -1.1055068327685719e+02 0 0 0
1530 44 1 0.0000000000000000e+00 -1.4531191071827587e+02 3.3964771875531767e+01 -1.1524626944385345e+02 0 0 0
1529 44 2 0.0000000000000000e+00 -1.4356257093151410e+02 3.5138317247635079e+01 -1.0567012418209028e+02 0 0 0
6894 197 4 0.0000000000000000e+00 -1.2119186923945571e+02 3.7551250394738403e+01 -1.1791665369979295e+02 0 0 0
1526 44 2 0.0000000000000000e+00 -1.2728518543781038e+02 3.6622003079703937e+01 -1.0686562999225521e+02 0 0 0
5112 147 4 0.0000000000000000e+00 -9.7823263505562451e+01 3.9692946040309835e+01 -1.1546948294082527e+02 0 0 0
5111 147 4 0.0000000000000000e+00 -8.8974696676476810e+01 3.5403067735416606e+01 -1.1394308164723577e+02 0 0 0
630 18 2 0.0000000000000000e+00 -6.8904930067425809e+01 3.4221657752800070e+01 -1.1321967283574803e+02 0 0 0
5089 146 4 0.0000000000000000e+00 -5.6610498301914355e+01 2.7625819215357314e+01 -1.1551478543654085e+02 0 0 0
5127 147 4 0.0000000000000000e+00 -5.3013812334031670e+01 3.8864027952133050e+01 -1.1208420483271799e+02 0 0 0
629 18 2 0.0000000000000000e+00 -6.2595628952111333e+01 3.2439149243288675e+01 -1.0533868806590147e+02 0 0 0
3011 87 2 0.0000000000000000e+00 -4.5650243249176967e+01 3.5573468684546611e+01 -1.1811826763385756e+02 0 0 0
594 17 2 0.0000000000000000e+00 -1.6474243425031165e+02 4.6135752227751517e+01 -1.1214881524880104e+02 0 0 0
1733 50 1 0.0000000000000000e+00 -1.5191404634896230e+02 4.7647307056301976e+01 -1.1526759091472084e+02 0 0 0
1734 50 2 0.0000000000000000e+00 -1.5011950414834882e+02 4.3637367008815644e+01 -1.0625610484518575e+02 0 0 0