LAMMPS data file via write_data, version 5 Jun 2019, timestep = 440000000

7000 atoms
4 atom types
7279 bonds
3 bond types
6600 angles
2 angle types

-5.0000000000000000e+02 5.0000000000000000e+02 xlo xhi
-5.0000000000000000e+02 5.0000000000000000e+02 ylo yhi
-5.0000000000000000e+02 5.0000000000000000e+02 zlo zhi

Masses

1 1000
2 1000
3 1000
4 1000

Pair Coeffs # lj/cut

1 0.296 10
2 0.296 10
3 0.296 10
4 0.296 10

Angle Coeffs # cosine

1 2
2 2

Atoms # full

2206 64 2 0.0000000000000000e+00 -7.9164772929571015e+01 5.0259789247710680e+00 -1.8466853810210682e+02 0 0 0
2207 64 2 0.0000000000000000e+00 -7.1790006034181573e+01 4.0949817776585231e+00 -1.7875411153389501e+02 0 0 0
5112 147 4 0.0000000000000000e+00 -4.0999625009868815e+01 1.0644919515712770e+01 -1.7849997420683673e+02 0 0 0
3017 87 2 0.0000000000000000e+00 -5.8997515533020021e+01 5.6018975922743202e+01 -1.8113673285327980e+02 0 0 0
2208 64 2 0.0000000000000000e+00 -6.3910035535860693e+01 1.3501370413389178e+00 -1.7396362924050342e+02 0 0 0
2209 64 1 0.0000000000000000e+00 -6.3129727561578349e+01 -2.3585119940687087e+00 -1.6421088447976379e+02 0 0 0
5114 147 3 0.0000000000000000e+00 -5.3433514831025960e+01 3.4914552468234241e+00 -1.6650581358311538e+02 0 0 0
5113 147 4 0.0000000000000000e+00 -5.0272052130741294e+01 8.8025018173046927e+00 -1.7405580947310136e+02 0 0 0
5440 156 4 0.0000000000000000e+00 -4.3651782275280155e+01 1.2462585354434704e+01 -1.6325943615360444e+02 0 0 0
5439 156 4 0.0000000000000000e+00 -4.9611489450864077e+01 2.0122778101090905e+01 -1.6552063684486183e+02 0 0 0
4760 136 4 0.0000000000000000e+00 -7.8672900622518171e+01 4.8473332555323239e+01 -1.6512559699034185e+02 0 0 0
4759 136 4 0.0000000000000000e+00 -7.1829000569230175e+01 5.6302780162057545e+01 -1.6430799341910551e+02 0 0 0
3019 87 2 0.0000000000000000e+00 -6.1727608404411320e+01 4.7900259468927487e+01 -1.6274646784328255e+02 0 0 0
3018 87 2 0.0000000000000000e+00 -6.2445214574508036e+01 5.1995278055400902e+01 -1.7216133295992779e+02 0 0 0
3021 87 1 0.0000000000000000e+00 -5.3779024190328187e+01 5.5261396932863327e+01 -1.6525784108900336e+02 0 0 0
3022 87 2 0.0000000000000000e+00 -4.6012522983580560e+01 5.5487011697012065e+01 -1.7163364567751688e+02 0 0 0
2210 64 2 0.0000000000000000e+00 -5.9904758380841002e+01 -9.9948740692739548e+00 -1.5803899170864022e+02 0 0 0
5115 147 4 0.0000000000000000e+00 -5.5503431219689453e+01 1.4729443840515397e+00 -1.5634024993979824e+02 0 0 0
2211 64 2 0.0000000000000000e+00 -5.2982441399529918e+01 -7.2252871450865603e+00 -1.5102438804145459e+02 0 0 0
1614 47 1 0.0000000000000000e+00 -4.3065032287126463e+01 -7.1682562622645483e+00 -1.5948301920865299e+02 0 0 0
1615 47 2 0.0000000000000000e+00 -4.2360267672829693e+01 -2.9632659996699999e+00 -1.5080797949589478e+02 0 0 0
1633 47 2 0.0000000000000000e+00 -5.0436424841947364e+01 1.4416850356160504e+01 -1.5655003077819285e+02 0 0 0
1632 47 2 0.0000000000000000e+00 -4.4339601203565557e+01 7.7047740288685045e+00 -1.5282621703419920e+02 0 0 0
5438 156 4 0.0000000000000000e+00 -5.2957939023939346e+01 2.7922455329436691e+01 -1.6096705084917295e+02 0 0 0
1634 47 2 0.0000000000000000e+00 -5.7207911385342314e+01 2.1047533386651892e+01 -1.5283393302998789e+02 0 0 0
1635 47 1 0.0000000000000000e+00 -5.8358722247030514e+01 3.0759876734230563e+01 -1.5003945119321801e+02 0 0 0
5437 156 4 0.0000000000000000e+00 -5.5556364313356305e+01 3.7622563272202356e+01 -1.6070770862528371e+02 0 0 0
1636 47 2 0.0000000000000000e+00 -6.1171931533919818e+01 4.0768292643575116e+01 -1.4954458860733752e+02 0 0 0
1637 47 2 0.0000000000000000e+00 -6.7366029471122843e+01 4.8480234195009814e+01 -1.5407918086740096e+02 0 0 0
3020 87 2 0.0000000000000000e+00 -5.8961810219478402e+01 5.5911475883290741e+01 -1.5681380826950809e+02 0 0 0
5436 156 3 0.0000000000000000e+00 -5.2201478064652591e+01 4.6635585464761370e+01 -1.5736234554008158e+02 0 0 0
2091 60 2 0.0000000000000000e+00 -9.9754122028176937e+01 -6.0189459669579151e+01 -1.3601296259707223e+02 0 0 0
6314 181 4 0.0000000000000000e+00 -4.6115380409318696e+01 -2.3823632507894267e+01 -1.3972825927771848e+02 0 0 0
1506 44 2 0.0000000000000000e+00 -4.9588786629338159e+01 -1.4496566442782553e+01 -1.3722195239409950e+02 0 0 0
6313 181 4 0.0000000000000000e+00 -4.0445578788743596e+01 -1.7718460150314964e+01 -1.4570859828218090e+02 0 0 0
5117 147 4 0.0000000000000000e+00 -6.5685010969006626e+01 1.3530696829107738e-01 -1.3983511010253596e+02 0 0 0
5116 147 4 0.0000000000000000e+00 -6.2545678561017390e+01 2.4547279601723324e+00 -1.4898091092851067e+02 0 0 0
2212 64 2 0.0000000000000000e+00 -5.1788886283972666e+01 -3.6078060027091778e+00 -1.4221976325617646e+02 0 0 0
6530 187 4 0.0000000000000000e+00 -5.8931454048402735e+01 1.6304064083267935e+01 -1.3746334954604961e+02 0 0 0
4741 136 4 0.0000000000000000e+00 -4.8633989470737781e+01 1.5065913413058718e+01 -1.4542496907649959e+02 0 0 0
4740 136 4 0.0000000000000000e+00 -4.6937412116867144e+01 7.2551887379637749e+00 -1.3972849389920412e+02 0 0 0
6529 187 4 0.0000000000000000e+00 -6.8509109793100990e+01 1.9438416430131685e+01 -1.3887517379260487e+02 0 0 0
4742 136 4 0.0000000000000000e+00 -5.2569329869121155e+01 2.4430644337962978e+01 -1.4294313535154393e+02 0 0 0
5349 153 4 0.0000000000000000e+00 -6.3210260879668887e+01 3.0753919200394201e+01 -1.3829245171407902e+02 0 0 0
3920 112 4 0.0000000000000000e+00 -4.1871575157615332e+01 2.4794965472909631e+01 -1.4691033669107534e+02 0 0 0
1540 44 2 0.0000000000000000e+00 -4.2838381264234215e+01 2.4543694008435565e+01 -1.3577014647357240e+02 0 0 0
5142 147 3 0.0000000000000000e+00 -1.2290927373630646e+02 4.2552970254982611e+01 -1.3960363935675878e+02 0 0 0
5348 153 4 0.0000000000000000e+00 -5.8572026612055346e+01 4.0074202688531926e+01 -1.3848332756797114e+02 0 0 0
4743 136 3 0.0000000000000000e+00 -4.9181299965443223e+01 3.3500427198092893e+01 -1.4404774292092398e+02 0 0 0
4744 136 4 0.0000000000000000e+00 -4.5787039821656009e+01 4.2753881529116676e+01 -1.4436189642840964e+02 0 0 0
6894 197 4 0.0000000000000000e+00 -1.7291569354278241e+02 5.6101287528344741e+01 -1.3962250280323795e+02 0 0 0
4763 137 4 0.0000000000000000e+00 -1.3306518318937233e+02 5.6594201742906407e+01 -1.4479006462150849e+02 0 0 0
5141 147 4 0.0000000000000000e+00 -1.1599494598095595e+02 4.7607941976823561e+01 -1.4503206736236396e+02 0 0 0
5140 147 4 0.0000000000000000e+00 -1.0718640617047289e+02 5.0865157261105317e+01 -1.4552601305975770e+02 0 0 0
5139 147 4 0.0000000000000000e+00 -9.9148920695685220e+01 5.6322025559427850e+01 -1.4852178529297433e+02 0 0 0
5138 147 4 0.0000000000000000e+00 -9.0420680533251428e+01 5.5673489349707800e+01 -1.4313008123171937e+02 0 0 0
5137 147 4 0.0000000000000000e+00 -8.5122836728819379e+01 4.8728270244491249e+01 -1.3800410089045488e+02 0 0 0
1638 47 2 0.0000000000000000e+00 -7.2480699614024786e+01 5.4164502808448120e+01 -1.4789947392646914e+02 0 0 0
5435 156 4 0.0000000000000000e+00 -5.5071405705492978e+01 4.9575489667130206e+01 -1.4815069319927585e+02 0 0 0
5434 156 4 0.0000000000000000e+00 -6.0918138039724447e+01 5.7193977091569359e+01 -1.4609796646697194e+02 0 0 0
6265 179 4 0.0000000000000000e+00 -1.1302752386886380e+02 -8.6249702474576893e+01 -1.3318223921750959e+02 0 0 0
6264 179 4 0.0000000000000000e+00 -1.0840426452058330e+02 -7.7131792258965248e+01 -1.3296588221552059e+02 0 0 0
6263 179 4 0.0000000000000000e+00 -1.0938900282595661e+02 -6.6806783296522411e+01 -1.3165019859916356e+02 0 0 0
6371 183 4 0.0000000000000000e+00 -4.0150812464355049e+01 -7.5652405611907042e+01 -1.3293761209227284e+02 0 0 0
6372 183 4 0.0000000000000000e+00 -4.1409789832486652e+01 -6.9252025103818099e+01 -1.2512172815483625e+02 0 0 0
6234 179 3 0.0000000000000000e+00 -1.1401684529505997e+02 -5.2520146325625845e+01 -1.2323442494738822e+02 0 0 0
2090 60 1 0.0000000000000000e+00 -9.4526077222811963e+01 -6.3420953426276526e+01 -1.2834048159112987e+02 0 0 0
6262 179 3 0.0000000000000000e+00 -1.0484238706242195e+02 -6.0220571671609491e+01 -1.2543766217669746e+02 0 0 0
2092 60 2 0.0000000000000000e+00 -9.7846022560128404e+01 -5.1864835320971189e+01 -1.3118942855069818e+02 0 0 0
2341 67 2 0.0000000000000000e+00 -4.5905167003653162e+01 -5.7639744625311970e+01 -1.2396428280322463e+02 0 0 0
2830 81 2 0.0000000000000000e+00 -1.2268305018585971e+02 -4.7026126336580965e+01 -1.3000471405386483e+02 0 0 0
2829 81 2 0.0000000000000000e+00 -1.1365161525384788e+02 -4.3144993857489290e+01 -1.3094212135059803e+02 0 0 0
2828 81 2 0.0000000000000000e+00 -1.0450604394378071e+02 -4.0611665408263313e+01 -1.3022795730499075e+02 0 0 0
2093 60 2 0.0000000000000000e+00 -9.3170239862382445e+01 -4.3494673872241520e+01 -1.2705734513451118e+02 0 0 0
2827 81 2 0.0000000000000000e+00 -1.0096616950883238e+02 -3.1544020455352364e+01 -1.2706257848922766e+02 0 0 0
2100 60 2 0.0000000000000000e+00 -8.0981266123060536e+01 -2.7440057808132046e+01 -1.2610711162719652e+02 0 0 0
6315 181 4 0.0000000000000000e+00 -4.3546192948063073e+01 -2.9859137685991435e+01 -1.3204013639590141e+02 0 0 0
2824 81 2 0.0000000000000000e+00 -8.2523337074642782e+01 -1.5442891262356639e+01 -1.2236515921503043e+02 0 0 0
1507 44 2 0.0000000000000000e+00 -5.6764239093020656e+01 -1.6254633009816381e+01 -1.3109569363313881e+02 0 0 0
1533 44 2 0.0000000000000000e+00 -9.5130049155120815e+01 -2.1301202526180665e-01 -1.2265797068613419e+02 0 0 0
1534 44 2 0.0000000000000000e+00 -8.9408691033692023e+01 1.4449872772219698e+00 -1.3142083928206986e+02 0 0 0
1535 44 2 0.0000000000000000e+00 -7.9500149594087262e+01 1.5277319041568234e+00 -1.3077026510467414e+02 0 0 0
5118 147 4 0.0000000000000000e+00 -6.8387966125615534e+01 -4.1225892626459961e+00 -1.3112215025485179e+02 0 0 0
5119 147 4 0.0000000000000000e+00 -7.0940555304331284e+01 -9.2257619751914363e-02 -1.2275982514828068e+02 0 0 0
2628 76 2 0.0000000000000000e+00 -5.3460948115450627e+01 -8.0776929408968492e+00 -1.2481614976360342e+02 0 0 0
2213 64 2 0.0000000000000000e+00 -5.7569903259908742e+01 -9.4970956905401227e-01 -1.3398423786073690e+02 0 0 0
2627 76 2 0.0000000000000000e+00 -4.7746868415127096e+01 -3.7691897146378937e+00 -1.3158408699745098e+02 0 0 0
4738 136 4 0.0000000000000000e+00 -4.0346610583547552e+01 -2.9344154419377383e-01 -1.2224311059638821e+02 0 0 0
2626 76 2 0.0000000000000000e+00 -3.8487351442237497e+01 -6.4490855637942843e+00 -1.3188102998988265e+02 0 0 0
6511 187 4 0.0000000000000000e+00 -1.2397476696335892e+02 6.6241797913662595e+00 -1.2393869031779263e+02 0 0 0
1536 44 2 0.0000000000000000e+00 -7.3683837264441920e+01 9.2331649570692615e+00 -1.3200883010744002e+02 0 0 0
1537 44 1 0.0000000000000000e+00 -6.7480069622431031e+01 1.5332691139327819e+01 -1.2709468905321837e+02 0 0 0
2214 64 2 0.0000000000000000e+00 -6.3929323492339513e+01 5.3329602960559122e+00 -1.2984352350697634e+02 0 0 0
6531 187 4 0.0000000000000000e+00 -5.2917940742583120e+01 1.0346436265849743e+01 -1.3202424986046549e+02 0 0 0
6532 187 4 0.0000000000000000e+00 -5.5731146308753544e+01 6.8622418145128394e+00 -1.2344724929310713e+02 0 0 0
4739 136 4 0.0000000000000000e+00 -4.3592018688600994e+01 4.8031957094984774e+00 -1.3054967612658007e+02 0 0 0
3186 92 2 0.0000000000000000e+00 -1.4887953432104629e+02 3.0840983173852184e+01 -1.2792902182750949e+02 0 0 0
3187 92 2 0.0000000000000000e+00 -1.3833538591670100e+02 2.8582441527082800e+01 -1.2911965495014789e+02 0 0 0
3188 92 2 0.0000000000000000e+00 -1.2982293363467664e+02 3.0239851018132850e+01 -1.3310230778301525e+02 0 0 0
3190 92 2 0.0000000000000000e+00 -1.1355029203301038e+02 3.0678180787126927e+01 -1.2647685988582857e+02 0 0 0
3191 92 2 0.0000000000000000e+00 -1.0409097501563403e+02 2.8105591721647450e+01 -1.2542464671133848e+02 0 0 0
6527 187 4 0.0000000000000000e+00 -8.0223249545659229e+01 1.7446365111378942e+01 -1.2444662391554510e+02 0 0 0
6528 187 3 0.0000000000000000e+00 -7.5112532821355146e+01 2.1960602206260941e+01 -1.3151215781994725e+02 0 0 0
5350 153 4 0.0000000000000000e+00 -6.7417656839019742e+01 2.7144962122539656e+01 -1.2984923863108983e+02 0 0 0
1538 44 2 0.0000000000000000e+00 -5.9689141553168810e+01 2.0972529269558425e+01 -1.2677832304351244e+02 0 0 0
1539 44 2 0.0000000000000000e+00 -5.1851210656193260e+01 2.4067344660353530e+01 -1.3098900137559983e+02 0 0 0
3189 92 1 0.0000000000000000e+00 -1.2094996843797747e+02 3.4268698662996343e+01 -1.3281952013366046e+02 0 0 0
5143 147 4 0.0000000000000000e+00 -1.3112034684090324e+02 4.1430329113280443e+01 -1.3389735248309532e+02 0 0 0
5144 147 4 0.0000000000000000e+00 -1.3164216625156357e+02 3.9599967897615244e+01 -1.2405952030490957e+02 0 0 0
5888 169 4 0.0000000000000000e+00 -1.0658072073663681e+02 4.3164555072807367e+01 -1.3228113406928242e+02 0 0 0
3192 92 2 0.0000000000000000e+00 -9.5292638337390073e+01 3.1538567883235974e+01 -1.2917649527764146e+02 0 0 0
3193 92 2 0.0000000000000000e+00 -8.8801979592622232e+01 3.7125246950003948e+01 -1.2424736678144126e+02 0 0 0
5135 147 3 0.0000000000000000e+00 -7.6576227071475074e+01 3.8567561777663741e+01 -1.2652164963518472e+02 0 0 0
5134 147 4 0.0000000000000000e+00 -6.7315409181272685e+01 3.4887201881209620e+01 -1.2404102318617171e+02 0 0 0
3387 97 2 0.0000000000000000e+00 -4.9672594949810190e+01 4.0278397640131679e+01 -1.2560071123476821e+02 0 0 0
3388 97 2 0.0000000000000000e+00 -4.2115671930834537e+01 3.5021290960736216e+01 -1.2895166488825708e+02 0 0 0
6892 197 3 0.0000000000000000e+00 -1.7851408279704961e+02 4.6625117972764727e+01 -1.2242337627810933e+02 0 0 0
6893 197 4 0.0000000000000000e+00 -1.7532747553348801e+02 5.2341766781589335e+01 -1.3044538809426157e+02 0 0 0
4764 137 3 0.0000000000000000e+00 -1.3545845291709952e+02 5.5379688478982601e+01 -1.3541463700879811e+02 0 0 0
1733 50 1 0.0000000000000000e+00 -1.2585225197331258e+02 5.5496653573230233e+01 -1.3041360441843131e+02 0 0 0
5886 169 4 0.0000000000000000e+00 -1.1792412147098662e+02 5.3218605615364872e+01 -1.2306694975387011e+02 0 0 0
5887 169 4 0.0000000000000000e+00 -1.1546317584207840e+02 4.5071808786003352e+01 -1.2762519808774685e+02 0 0 0
6187 177 4 0.0000000000000000e+00 -1.1429530707600333e+02 5.5893478749011159e+01 -1.3369639618310205e+02 0 0 0
5889 169 4 0.0000000000000000e+00 -9.9525745543893109e+01 4.6510352069554060e+01 -1.2630569394481820e+02 0 0 0
6186 177 4 0.0000000000000000e+00 -1.0410507860141510e+02 5.4660199837589929e+01 -1.3203272584972922e+02 0 0 0
3195 92 2 0.0000000000000000e+00 -9.1304971671932407e+01 5.4234821650113993e+01 -1.2646143803686738e+02 0 0 0
5136 147 4 0.0000000000000000e+00 -7.9982916471269476e+01 4.7028575151286802e+01 -1.2959577354053627e+02 0 0 0
1641 47 2 0.0000000000000000e+00 -7.3926289650431244e+01 5.2865395497354896e+01 -1.2403834981747050e+02 0 0 0
5347 153 4 0.0000000000000000e+00 -5.8956068921176481e+01 4.7151662830675022e+01 -1.3126448311196765e+02 0 0 0
5346 153 4 0.0000000000000000e+00 -6.2946296132498823e+01 5.2694266891141247e+01 -1.2473931891737658e+02 0 0 0
4375 125 4 0.0000000000000000e+00 -4.2909072983777897e+01 4.9854439174890025e+01 -1.3500192317508717e+02 0 0 0
4374 125 4 0.0000000000000000e+00 -4.9615717081977529e+01 5.1601691611519854e+01 -1.2814741802434469e+02 0 0 0
628 18 2 0.0000000000000000e+00 -3.9772462686068330e+01 5.0455381213122365e+01 -1.2321590148130143e+02 0 0 0
2344 67 2 0.0000000000000000e+00 -5.7872695053032835e+01 -7.9278100336347549e+01 -1.1114287195674684e+02 0 0 0
2240 64 2 0.0000000000000000e+00 -4.9018098963056595e+01 -8.4035489154312330e+01 -1.1423432534183715e+02 0 0 0
2088 60 2 0.0000000000000000e+00 -9.4260530136887667e+01 -7.2595998253932123e+01 -1.1373045803822576e+02 0 0 0
2089 60 2 0.0000000000000000e+00 -9.0964817159787273e+01 -6.6033845315546387e+01 -1.1976307127977378e+02 0 0 0
4848 139 3 0.0000000000000000e+00 -5.5651874974307781e+01 -6.5980559855258662e+01 -1.0965195709859273e+02 0 0 0
2343 67 2 0.0000000000000000e+00 -5.3023191919748442e+01 -7.4163018667105860e+01 -1.1816819782849593e+02 0 0 0
2342 67 1 0.0000000000000000e+00 -5.0605120522893081e+01 -6.4925148001984766e+01 -1.1989897359162204e+02 0 0 0
6373 183 4 0.0000000000000000e+00 -3.9215737556213227e+01 -6.5315605745801790e+01 -1.1622815089420612e+02 0 0 0
6236 179 4 0.0000000000000000e+00 -1.2718976205627499e+02 -6.1418687372538464e+01 -1.1370775699156751e+02 0 0 0
6235 179 4 0.0000000000000000e+00 -1.2154354930077849e+02 -5.6057162726056163e+01 -1.1906666711530683e+02 0 0 0
6261 179 4 0.0000000000000000e+00 -1.0867830752594527e+02 -5.9471973646849662e+01 -1.1666847573170266e+02 0 0 0
6260 179 4 0.0000000000000000e+00 -1.1449454428823920e+02 -6.0843194882983823e+01 -1.0908725475082001e+02 0 0 0
2095 60 2 0.0000000000000000e+00 -9.4058144634520374e+01 -5.6170422972950632e+01 -1.1212733093816466e+02 0 0 0
2094 60 2 0.0000000000000000e+00 -9.4530682034004002e+01 -5.1140769263495194e+01 -1.2049037937125728e+02 0 0 0
6247 179 4 0.0000000000000000e+00 -6.1302316086775278e+01 -5.4549932015894079e+01 -1.0862677570370683e+02 0 0 0
2340 67 2 0.0000000000000000e+00 -3.9874206860337239e+01 -5.1844009921203728e+01 -1.1885933385644522e+02 0 0 0
2831 81 2 0.0000000000000000e+00 -1.2490886574818879e+02 -4.4559976713125053e+01 -1.2057345433187726e+02 0 0 0
1367 40 2 0.0000000000000000e+00 -1.2430863190150541e+02 -3.7237634224280136e+01 -1.0943638614293990e+02 0 0 0
2832 81 1 0.0000000000000000e+00 -1.1712997516757115e+02 -4.5334839310170238e+01 -1.1539691018888034e+02 0 0 0
6233 179 4 0.0000000000000000e+00 -1.0630488365028464e+02 -4.8259811660294886e+01 -1.1852845351845507e+02 0 0 0
6232 179 4 0.0000000000000000e+00 -9.9829546649562445e+01 -4.0612955447692315e+01 -1.1497410726356819e+02 0 0 0
6323 181 4 0.0000000000000000e+00 -7.7565494863205458e+01 -4.7064063364348492e+01 -1.1285301562111384e+02 0 0 0
6322 181 4 0.0000000000000000e+00 -6.8533674075068944e+01 -4.4927769500342571e+01 -1.1503378732071094e+02 0 0 0
6321 181 4 0.0000000000000000e+00 -5.9717968734106101e+01 -4.0766053444001940e+01 -1.1655862433852241e+02 0 0 0
6320 181 4 0.0000000000000000e+00 -5.4095123283049851e+01 -4.9515408735881628e+01 -1.1575474763587125e+02 0 0 0
6319 181 4 0.0000000000000000e+00 -4.9376466373536907e+01 -4.4935405566031044e+01 -1.0881773419606976e+02 0 0 0
6318 181 3 0.0000000000000000e+00 -4.0014431966662514e+01 -4.2078660578918957e+01 -1.1137493372410977e+02 0 0 0
5539 159 4 0.0000000000000000e+00 -1.3745766198045635e+02 -2.3604861193777865e+01 -1.1038457313940829e+02 0 0 0
1366 40 2 0.0000000000000000e+00 -1.2349856880282320e+02 -3.3650049453053256e+01 -1.1879123839375426e+02 0 0 0
6231 179 4 0.0000000000000000e+00 -9.7049919599305156e+01 -3.2590152108338913e+01 -1.0945848133835197e+02 0 0 0
2826 81 2 0.0000000000000000e+00 -9.7992095693342321e+01 -2.6248814333061762e+01 -1.1941037380473117e+02 0 0 0
2099 60 2 0.0000000000000000e+00 -8.4463547223989934e+01 -2.8157068274518934e+01 -1.1694448806129293e+02 0 0 0
2822 81 2 0.0000000000000000e+00 -6.5410572317650264e+01 -2.5406100924022734e+01 -1.2003543063500459e+02 0 0 0
2821 81 2 0.0000000000000000e+00 -5.9546559936007320e+01 -3.0190254427961595e+01 -1.1357234948866632e+02 0 0 0
5538 159 4 0.0000000000000000e+00 -1.4035030208736529e+02 -1.6082430913858808e+01 -1.1623514082850255e+02 0 0 0
5537 159 4 0.0000000000000000e+00 -1.3087814434347123e+02 -1.4368591828312017e+01 -1.1788486550360105e+02 0 0 0
6330 181 4 0.0000000000000000e+00 -1.0594740690304897e+02 -2.1227527966937782e+01 -1.1432290849584405e+02 0 0 0
6331 181 4 0.0000000000000000e+00 -9.8794504249308574e+01 -1.4196743389044784e+01 -1.1584371029912356e+02 0 0 0
2825 81 1 0.0000000000000000e+00 -9.0304774050716446e+01 -2.0036049626196093e+01 -1.1885687999461865e+02 0 0 0
6536 187 4 0.0000000000000000e+00 -8.0700119798838998e+01 -1.9443970088550508e+01 -1.1052208303741018e+02 0 0 0
2823 81 2 0.0000000000000000e+00 -7.3986455892519999e+01 -2.0106453638936415e+01 -1.2147812626512884e+02 0 0 0
6535 187 3 0.0000000000000000e+00 -7.2623578704671729e+01 -1.4059631490810633e+01 -1.1360774932158499e+02 0 0 0
1510 44 2 0.0000000000000000e+00 -7.1584853417886336e+01 -2.3493458311456166e+01 -1.0998810666626811e+02 0 0 0
1509 44 1 0.0000000000000000e+00 -6.3156198378108236e+01 -1.9504106106154286e+01 -1.1314363021689044e+02 0 0 0
1508 44 2 0.0000000000000000e+00 -5.9127114474754990e+01 -1.5816338616041925e+01 -1.2153246170529043e+02 0 0 0
2629 76 1 0.0000000000000000e+00 -5.3986548758380451e+01 -1.0815378161072900e+01 -1.1505857925211174e+02 0 0 0
4736 136 3 0.0000000000000000e+00 -4.4547678724214592e+01 -1.6542084237295555e+01 -1.1308393243378096e+02 0 0 0
5536 159 4 0.0000000000000000e+00 -1.2325675458502654e+02 -9.3292351699747620e+00 -1.1454912466260440e+02 0 0 0
5535 159 4 0.0000000000000000e+00 -1.1634717334032806e+02 -2.4544677170973008e+00 -1.1455993433339161e+02 0 0 0
5534 159 3 0.0000000000000000e+00 -1.0780663104049961e+02 3.3546485855876091e+00 -1.1608651617644797e+02 0 0 0
1532 44 2 0.0000000000000000e+00 -9.8600688596006364e+01 -3.9558270123588581e+00 -1.1373840891160161e+02 0 0 0
6332 181 3 0.0000000000000000e+00 -9.0470233807221234e+01 -9.3949524748795437e+00 -1.1749680773467642e+02 0 0 0
5531 159 4 0.0000000000000000e+00 -8.5901987375756875e+01 1.0083035503274951e+00 -1.2006562462996702e+02 0 0 0
6333 181 4 0.0000000000000000e+00 -8.7051952652487046e+01 -3.2963979808634005e+00 -1.1066777029068334e+02 0 0 0
6534 187 4 0.0000000000000000e+00 -6.5279622519150280e+01 -7.4888963429783502e+00 -1.1547095343251652e+02 0 0 0
5120 147 4 0.0000000000000000e+00 -7.3515497192776635e+01 -1.1609482493540082e+00 -1.1276950090928925e+02 0 0 0
6533 187 4 0.0000000000000000e+00 -5.9427240670683375e+01 5.8432781051004201e-01 -1.1719417573923604e+02 0 0 0
4737 136 4 0.0000000000000000e+00 -4.4470340758306307e+01 -9.7500729364617609e+00 -1.2116132838572408e+02 0 0 0
6512 187 4 0.0000000000000000e+00 -1.2714600647273267e+02 9.7512881697001212e+00 -1.1530220632123260e+02 0 0 0
6522 187 4 0.0000000000000000e+00 -1.1412355950633356e+02 1.6156935332696726e+01 -1.1236778013482446e+02 0 0 0
5533 159 4 0.0000000000000000e+00 -1.0062664796907239e+02 9.2307200056005634e+00 -1.1973701259024202e+02 0 0 0
5532 159 4 0.0000000000000000e+00 -9.0677808040467539e+01 1.0364445335603035e+01 -1.2112242375208122e+02 0 0 0
6526 187 4 0.0000000000000000e+00 -8.2453767185893312e+01 1.6820565685217247e+01 -1.1476889288911681e+02 0 0 0
2216 64 1 0.0000000000000000e+00 -7.1973864656559414e+01 1.2981309814029370e+01 -1.1378851115218720e+02 0 0 0
2215 64 2 0.0000000000000000e+00 -6.6137232379113371e+01 8.5986178208766351e+00 -1.2060253556559070e+02 0 0 0
666 20 2 0.0000000000000000e+00 -6.0140431829953364e+01 1.0021597286418203e+01 -1.0996389697521404e+02 0 0 0
667 20 2 0.0000000000000000e+00 -5.1001769501567466e+01 1.1627889341627265e+01 -1.1449784970011839e+02 0 0 0
668 20 2 0.0000000000000000e+00 -4.1490922655242109e+01 1.3784224891046099e+01 -1.1142192177911394e+02 0 0 0
6515 187 4 0.0000000000000000e+00 -1.3206151699051631e+02 2.7340065096366839e+01 -1.0868296180902328e+02 0 0 0
6521 187 3 0.0000000000000000e+00 -1.0908583780951757e+02 2.4749918839087478e+01 -1.1325775297836682e+02 0 0 0
2066 60 2 0.0000000000000000e+00 -8.7437721377442145e+01 2.7989962709763400e+01 -1.1897899242051488e+02 0 0 0
5351 153 4 0.0000000000000000e+00 -7.0256619785324247e+01 2.3932366818554250e+01 -1.2083538351572842e+02 0 0 0
5352 153 3 0.0000000000000000e+00 -6.6409701032285170e+01 2.3314943516731603e+01 -1.1237913306797729e+02 0 0 0
5133 147 4 0.0000000000000000e+00 -6.1110355724252031e+01 3.0094639131930659e+01 -1.1831251487019428e+02 0 0 0
5132 147 4 0.0000000000000000e+00 -5.1007033271551528e+01 2.8837407241169590e+01 -1.1612038223238336e+02 0 0 0
6891 197 4 0.0000000000000000e+00 -1.8441781628580131e+02 3.9936403550516992e+01 -1.1842235668901870e+02 0 0 0
5145 147 4 0.0000000000000000e+00 -1.2423716742550481e+02 4.1691851381180427e+01 -1.1782301119050410e+02 0 0 0
6520 187 4 0.0000000000000000e+00 -1.0805358754578710e+02 3.4043191611384628e+01 -1.1636220314557971e+02 0 0 0
6519 187 4 0.0000000000000000e+00 -1.1051311605043809e+02 4.2795702584719677e+01 -1.1941641020770594e+02 0 0 0
5890 169 4 0.0000000000000000e+00 -9.9474338176249191e+01 4.2267618744509171e+01 -1.1716631749953085e+02 0 0 0
2068 60 2 0.0000000000000000e+00 -1.0093000083058222e+02 3.4079771753506847e+01 -1.0916184678525499e+02 0 0 0
2067 60 2 0.0000000000000000e+00 -9.2059276406942828e+01 3.4855356674591313e+01 -1.1413343976963182e+02 0 0 0
1643 47 2 0.0000000000000000e+00 -8.2052808605766216e+01 3.9872515285918972e+01 -1.1202161561308249e+02 0 0 0
3043 87 2 0.0000000000000000e+00 -6.9544121321594915e+01 3.2661846263454514e+01 -1.1109434094311798e+02 0 0 0
3386 97 2 0.0000000000000000e+00 -5.7530689606683907e+01 4.3019234493312780e+01 -1.1995692850712643e+02 0 0 0
630 18 2 0.0000000000000000e+00 -4.9311523099167907e+01 3.7562490641542709e+01 -1.1143315018950726e+02 0 0 0
1735 50 2 0.0000000000000000e+00 -1.3325737265628049e+02 4.6549334373863111e+01 -1.1441589547219957e+02 0 0 0
1734 50 2 0.0000000000000000e+00 -1.2875738575394394e+02 5.1395817184838002e+01 -1.2168175633602065e+02 0 0 0
6518 187 4 0.0000000000000000e+00 -1.1704641990062569e+02 4.7960623076229560e+01 -1.1392334689579513e+02 0 0 0
3194 92 2 0.0000000000000000e+00 -9.0038692243241215e+01 4.6008956896003355e+01 -1.2150048645331974e+02 0 0 0
2922 84 2 0.0000000000000000e+00 -8.3504452034686508e+01 5.0935392735932844e+01 -1.1042055713113109e+02 0 0 0
1642 47 1 0.0000000000000000e+00 -7.9026617179275419e+01 4.6316827140742085e+01 -1.1864379339521427e+02 0 0 0
2921 84 2 0.0000000000000000e+00 -8.0536824782956046e+01 5.7858555280134020e+01 -1.1707009284891882e+02 0 0 0
3384 97 2 0.0000000000000000e+00 -6.7777503811814341e+01 5.3529623310330223e+01 -1.0996146612431963e+02 0 0 0
3385 97 1 0.0000000000000000e+00 -6.2394768943325751e+01 4.5717046745886073e+01 -1.1219854511180155e+02 0 0 0
4372 125 3 0.0000000000000000e+00 -5.6511388359857754e+01 5.3997537260398197e+01 -1.0953482455127639e+02 0 0 0
4373 125 4 0.0000000000000000e+00 -5.4598035631964521e+01 5.2873605782990722e+01 -1.1944652189322160e+02 0 0 0
629 18 2 0.0000000000000000e+00 -4.6328438723062966e+01 4.5264808960665441e+01 -1.1715006733844854e+02 0 0 0
2345 67 2 0.0000000000000000e+00 -6.2010729645108100e+01 -8.7591884626113512e+01 -1.0603218004254079e+02 0 0 0
6237 179 4 0.0000000000000000e+00 -1.2910989046666393e+02 -6.4464247019212337e+01 -1.0461809521217467e+02 0 0 0
6259 179 4 0.0000000000000000e+00 -1.1758793959974196e+02 -6.8856375830794292e+01 -1.0427402680128915e+02 0 0 0
6258 179 4 0.0000000000000000e+00 -1.1684304018519356e+02 -7.5399136369595666e+01 -9.6135666582125836e+01 0 0 0
2086 60 2 0.0000000000000000e+00 -1.0442769262352741e+02 -7.7524361340931421e+01 -9.8480382339751117e+01 0 0 0
2087 60 2 0.0000000000000000e+00 -1.0202925444072525e+02 -7.4691343822742979e+01 -1.0785587118812761e+02 0 0 0
4850 139 4 0.0000000000000000e+00 -6.5860552462556754e+01 -7.1471569643483036e+01 -9.9545729789324668e+01 0 0 0
4851 139 4 0.0000000000000000e+00 -7.4498332395128600e+01 -6.8586159061047326e+01 -9.6369149347165106e+01 0 0 0
4849 139 4 0.0000000000000000e+00 -5.8625892449525985e+01 -6.4887638152110227e+01 -1.0004012446670369e+02 0 0 0
2239 64 2 0.0000000000000000e+00 -4.9544135349573494e+01 -7.6503753100001717e+01 -1.0642187029549929e+02 0 0 0
2238 64 2 0.0000000000000000e+00 -4.2876601223452276e+01 -7.3444693538320109e+01 -9.9333937787069573e+01 0 0 0
1369 40 1 0.0000000000000000e+00 -1.1988421984129238e+02 -5.5451588072984414e+01 -1.0239828373095322e+02 0 0 0
6238 179 4 0.0000000000000000e+00 -1.2987270107891192e+02 -6.0451762100815849e+01 -9.5373856725680838e+01 0 0 0
1370 40 2 0.0000000000000000e+00 -1.1640674357158854e+02 -6.3040347515275307e+01 -9.6024896927149982e+01 0 0 0
6242 179 4 0.0000000000000000e+00 -1.0770983774053879e+02 -5.4992252169406463e+01 -1.0238004875889143e+02 0 0 0
6243 179 4 0.0000000000000000e+00 -9.9271621674666250e+01 -6.1955426442885106e+01 -1.0277807771099519e+02 0 0 0
6326 181 4 0.0000000000000000e+00 -9.8009917686521632e+01 -5.3421954277882818e+01 -9.7760832403341468e+01 0 0 0
6245 179 4 0.0000000000000000e+00 -8.0604427725254666e+01 -6.0036906228020293e+01 -1.0493793337536417e+02 0 0 0
6244 179 4 0.0000000000000000e+00 -8.9835811035457681e+01 -6.2704900234036799e+01 -1.0231627155602283e+02 0 0 0
6324 181 4 0.0000000000000000e+00 -8.5137808336713917e+01 -5.1803409906773503e+01 -1.0854163578284349e+02 0 0 0
6246 179 4 0.0000000000000000e+00 -7.0827604690620475e+01 -5.7127450727569645e+01 -1.0729238194467649e+02 0 0 0
5530 158 4 0.0000000000000000e+00 -7.7694623367526475e+01 -5.3476954765573986e+01 -9.8113148168750712e+01 0 0 0
6248 179 3 0.0000000000000000e+00 -6.1702495382500139e+01 -5.4115253817808338e+01 -9.8617633833315168e+01 0 0 0
4847 139 4 0.0000000000000000e+00 -4.9067229587413266e+01 -5.9172557589278192e+01 -1.0764366639032366e+02 0 0 0
2237 64 1 0.0000000000000000e+00 -4.2743031941079700e+01 -6.3838001225900818e+01 -9.7791241439278124e+01 0 0 0
4846 139 4 0.0000000000000000e+00 -4.0481596473637943e+01 -5.3545422306853617e+01 -1.0690382208685156e+02 0 0 0
2236 64 2 0.0000000000000000e+00 -4.7808955704681686e+01 -5.5293792641908077e+01 -9.5537782760408874e+01 0 0 0
1368 40 2 0.0000000000000000e+00 -1.2236330688412320e+02 -4.6686196220332441e+01 -1.0681926604288427e+02 0 0 0
2835 81 2 0.0000000000000000e+00 -1.2756311705356188e+02 -4.4792959912362619e+01 -9.5744523885833615e+01 0 0 0
2833 81 2 0.0000000000000000e+00 -1.1251284410706619e+02 -4.2226800980097927e+01 -1.0714053519094493e+02 0 0 0
2834 81 2 0.0000000000000000e+00 -1.1780456884240390e+02 -4.3022497252766570e+01 -9.8630142644596532e+01 0 0 0
2096 60 2 0.0000000000000000e+00 -9.5144301637588796e+01 -4.8103951320073428e+01 -1.0722372518667102e+02 0 0 0
6327 181 4 0.0000000000000000e+00 -1.0099895454620385e+02 -4.4878277654286151e+01 -9.9979429623883277e+01 0 0 0
6325 181 3 0.0000000000000000e+00 -8.8457409238836433e+01 -5.0699271722809620e+01 -9.8877615900961160e+01 0 0 0
2097 60 1 0.0000000000000000e+00 -8.9400258683571991e+01 -4.1162629141252907e+01 -1.0387519030941903e+02 0 0 0