LAMMPS data file via write_data, version 5 Jun 2019, timestep = 490000000

7000 atoms
4 atom types
7282 bonds
3 bond types
6600 angles
2 angle types

-5.0000000000000000e+02 5.0000000000000000e+02 xlo xhi
-5.0000000000000000e+02 5.0000000000000000e+02 ylo yhi
-5.0000000000000000e+02 5.0000000000000000e+02 zlo zhi

Masses

1 1000
2 1000
3 1000
4 1000

Pair Coeffs # lj/cut

1 0.296 10
2 0.296 10
3 0.296 10
4 0.296 10

Angle Coeffs # cosine

1 2
2 2

Atoms # full

2835 81 2 0.0000000000000000e+00 -9.4220350983701934e+01 -7.3026925980796037e+01 -1.9779699525838009e+02 0 0 0
2834 81 2 0.0000000000000000e+00 -9.7099402969647457e+01 -7.1652253228039498e+01 -1.8816179279491524e+02 0 0 0
2833 81 2 0.0000000000000000e+00 -9.6220855574266338e+01 -6.6288315492201676e+01 -1.7996350444800416e+02 0 0 0
6241 179 3 0.0000000000000000e+00 -9.2387785726285671e+01 -6.6339530915823119e+01 -1.6942485792936770e+02 0 0 0
2832 81 1 0.0000000000000000e+00 -9.2377336339869643e+01 -5.7644544988680309e+01 -1.7601671568533678e+02 0 0 0
2831 81 2 0.0000000000000000e+00 -8.5156607022113008e+01 -5.5675506178376430e+01 -1.6894731243500468e+02 0 0 0
6232 179 4 0.0000000000000000e+00 -4.8326253752054946e+01 -8.5241028970018860e+01 -1.6265674429511523e+02 0 0 0
6240 179 4 0.0000000000000000e+00 -9.4962746860695418e+01 -7.1375849490541043e+01 -1.6042170481247885e+02 0 0 0
6234 179 3 0.0000000000000000e+00 -5.6829620738717225e+01 -6.7737971660420882e+01 -1.6146258135243622e+02 0 0 0
6233 179 4 0.0000000000000000e+00 -5.1625011598137974e+01 -7.5429090286119646e+01 -1.6391613166834981e+02 0 0 0
6242 179 4 0.0000000000000000e+00 -9.8485699320162752e+01 -6.2384891371200389e+01 -1.6225678401831567e+02 0 0 0
6243 179 4 0.0000000000000000e+00 -1.0010360079259438e+02 -5.4906662931811972e+01 -1.5602826310278166e+02 0 0 0
2830 81 2 0.0000000000000000e+00 -8.3726786812866976e+01 -5.4030053662752131e+01 -1.5871479852172911e+02 0 0 0
6236 179 4 0.0000000000000000e+00 -7.3494148080831394e+01 -6.2396692845676945e+01 -1.5553507968521521e+02 0 0 0
6235 179 4 0.0000000000000000e+00 -6.3473697403880685e+01 -6.1905499182491717e+01 -1.5656108803025762e+02 0 0 0
3465 99 2 0.0000000000000000e+00 -1.8455733949068269e+02 8.5193988082488303e+00 -1.5547779553136562e+02 0 0 0
490 14 2 0.0000000000000000e+00 -1.1805802932088915e+02 1.8501496962561603e+01 -1.6709784703962805e+02 0 0 0
489 14 2 0.0000000000000000e+00 -1.2094915055671164e+02 2.3363983994086968e+01 -1.5883654197786996e+02 0 0 0
488 14 2 0.0000000000000000e+00 -1.1945515144344773e+02 3.1825845750413237e+01 -1.5381456428642579e+02 0 0 0
6239 179 4 0.0000000000000000e+00 -9.6425454227363659e+01 -7.0546036967604721e+01 -1.5018327925707706e+02 0 0 0
6238 179 4 0.0000000000000000e+00 -8.8041233682276271e+01 -6.7166181864066672e+01 -1.4531161942247627e+02 0 0 0
2345 67 2 0.0000000000000000e+00 -7.9079302554162282e+01 -7.5405645275278033e+01 -1.4411127393003252e+02 0 0 0
2344 67 2 0.0000000000000000e+00 -7.0073357771785453e+01 -7.3654496992117885e+01 -1.4837614389603763e+02 0 0 0
2343 67 2 0.0000000000000000e+00 -6.0931953887464203e+01 -7.2250764309097988e+01 -1.5229547407180701e+02 0 0 0
2342 67 1 0.0000000000000000e+00 -5.1295724674245470e+01 -7.0687335585732271e+01 -1.5178854874858945e+02 0 0 0
2341 67 2 0.0000000000000000e+00 -4.1726185374208391e+01 -6.8257429220721491e+01 -1.5070337028080721e+02 0 0 0
6244 179 4 0.0000000000000000e+00 -9.2264129725194366e+01 -5.2727944963387259e+01 -1.4998440994956826e+02 0 0 0
2829 81 2 0.0000000000000000e+00 -7.6809302177469647e+01 -5.2270713947515972e+01 -1.5068661370878004e+02 0 0 0
6237 179 4 0.0000000000000000e+00 -7.9665720200698402e+01 -6.1964783849491674e+01 -1.4728520215477511e+02 0 0 0
1612 47 2 0.0000000000000000e+00 -6.6310175837324124e+01 -6.0887478633516615e+01 -1.4037430124306678e+02 0 0 0
6245 179 4 0.0000000000000000e+00 -8.5767331982023180e+01 -4.5654142738497868e+01 -1.5216481565887926e+02 0 0 0
2539 73 2 0.0000000000000000e+00 -9.0230669201831816e+01 -4.0426750302966305e+01 -1.4250016333370894e+02 0 0 0
6246 179 4 0.0000000000000000e+00 -8.1402692144415980e+01 -3.7071118310860371e+01 -1.4834055094819806e+02 0 0 0
2828 81 2 0.0000000000000000e+00 -7.3121294055892989e+01 -4.3248398772190257e+01 -1.4801671363140713e+02 0 0 0
6247 179 4 0.0000000000000000e+00 -7.8041500504591482e+01 -4.0416313458456827e+01 -1.3988221881722549e+02 0 0 0
3732 107 4 0.0000000000000000e+00 -1.1008545204839122e+02 -3.5120359401708292e+01 -1.4330793307825971e+02 0 0 0
3731 107 4 0.0000000000000000e+00 -1.1697905551586575e+02 -2.7079529238876741e+01 -1.4318009971540053e+02 0 0 0
2541 73 2 0.0000000000000000e+00 -1.0163930119799099e+02 -2.8325279466109794e+01 -1.4708282740708614e+02 0 0 0
2540 73 2 0.0000000000000000e+00 -9.2890308372093784e+01 -3.1082786037717462e+01 -1.4397380177261425e+02 0 0 0
2827 81 2 0.0000000000000000e+00 -6.7865939893740915e+01 -3.4495718197905553e+01 -1.4618646903126910e+02 0 0 0
2826 81 2 0.0000000000000000e+00 -6.0942690440100556e+01 -3.0017541378805888e+01 -1.4000898776815018e+02 0 0 0
3730 107 4 0.0000000000000000e+00 -1.2188327116698638e+02 -1.7842772685426457e+01 -1.4211651848020387e+02 0 0 0
6252 179 4 0.0000000000000000e+00 -8.0743092613922101e+01 -2.0343989954367093e+01 -1.4099115150007501e+02 0 0 0
6300 180 4 0.0000000000000000e+00 -1.1546255271199516e+02 3.7630568116306256e+00 -1.4105377095759675e+02 0 0 0
2079 60 2 0.0000000000000000e+00 -4.3675733652601608e+01 7.9217179511636204e-02 -1.5144877060218522e+02 0 0 0
2078 60 2 0.0000000000000000e+00 -4.9746179426854596e+01 5.0307690697707761e+00 -1.4554376722874247e+02 0 0 0
3464 99 2 0.0000000000000000e+00 -1.8661320444044671e+02 9.2808621876140869e+00 -1.4522801082689463e+02 0 0 0
6523 187 4 0.0000000000000000e+00 -1.0622310465925753e+02 1.2541635512510268e+01 -1.4106279483888500e+02 0 0 0
2066 60 2 0.0000000000000000e+00 -1.3779528430022449e+02 2.6152603613885645e+01 -1.5184173141606382e+02 0 0 0
2067 60 2 0.0000000000000000e+00 -1.2804685665160764e+02 2.5957572697756024e+01 -1.4884982507877208e+02 0 0 0
1741 50 2 0.0000000000000000e+00 -1.3094044788447786e+02 3.1387922590431913e+01 -1.4044553412054393e+02 0 0 0
2068 60 2 0.0000000000000000e+00 -1.1919055011486269e+02 2.7276411135428610e+01 -1.4463260502796959e+02 0 0 0
2069 60 1 0.0000000000000000e+00 -1.1016166861216254e+02 2.6270688647582148e+01 -1.4116948647189130e+02 0 0 0
1631 47 2 0.0000000000000000e+00 -5.7462407387744008e+01 2.9434672765242258e+01 -1.5358960496290965e+02 0 0 0
1630 47 2 0.0000000000000000e+00 -4.7460648175395626e+01 2.6055634578512844e+01 -1.5367556565409154e+02 0 0 0
6536 187 4 0.0000000000000000e+00 -5.0602582756761059e+01 2.4702660281611355e+01 -1.4280443377482433e+02 0 0 0
1629 47 2 0.0000000000000000e+00 -4.1395573147815057e+01 2.2035376413646294e+01 -1.4729653959454129e+02 0 0 0
3459 99 2 0.0000000000000000e+00 -1.5358268217547476e+02 3.6398910306524279e+01 -1.4063899534428472e+02 0 0 0
1743 50 2 0.0000000000000000e+00 -1.3996737682411376e+02 4.3500434966075076e+01 -1.4984319430732512e+02 0 0 0
6888 197 4 0.0000000000000000e+00 -1.4434127817906008e+02 3.9473678303564732e+01 -1.4036206473481107e+02 0 0 0
1742 50 2 0.0000000000000000e+00 -1.3381072654727967e+02 3.5828663820702950e+01 -1.4880986984653379e+02 0 0 0
487 14 1 0.0000000000000000e+00 -1.2438419545835751e+02 3.7620266234908065e+01 -1.4714588006285433e+02 0 0 0
1634 47 2 0.0000000000000000e+00 -8.1966685924066738e+01 4.2139005567360307e+01 -1.4668748663561459e+02 0 0 0
1633 47 2 0.0000000000000000e+00 -7.2963835580490525e+01 3.8003863251986054e+01 -1.4821968114003639e+02 0 0 0
1632 47 2 0.0000000000000000e+00 -6.4424282312886803e+01 3.3087673604597910e+01 -1.4719500843212163e+02 0 0 0
6538 187 4 0.0000000000000000e+00 -4.4801925043934254e+01 4.3373658276231652e+01 -1.4760405010908826e+02 0 0 0
6537 187 4 0.0000000000000000e+00 -4.8167800086794152e+01 3.4359918698393500e+01 -1.4676291430146847e+02 0 0 0
2536 73 2 0.0000000000000000e+00 -8.2643570767293866e+01 -6.6332816636794689e+01 -1.3556921643391931e+02 0 0 0
1611 47 2 0.0000000000000000e+00 -7.4355914183445847e+01 -6.6428146896665794e+01 -1.3979486667608558e+02 0 0 0
3735 107 3 0.0000000000000000e+00 -9.4342360507672069e+01 -5.2749567957363695e+01 -1.2989727384740527e+02 0 0 0
2537 73 2 0.0000000000000000e+00 -8.1895554620243189e+01 -5.6734143237804410e+01 -1.3869912144960381e+02 0 0 0
2535 73 2 0.0000000000000000e+00 -8.7685550436908684e+01 -6.2526369317052328e+01 -1.2842652561097773e+02 0 0 0
1613 47 2 0.0000000000000000e+00 -6.2621295827938262e+01 -5.3724805872962797e+01 -1.3473525694349692e+02 0 0 0
3733 107 4 0.0000000000000000e+00 -1.0661254370776180e+02 -4.0998343676757379e+01 -1.3604707093177356e+02 0 0 0
3734 107 4 0.0000000000000000e+00 -9.9933461542116561e+01 -4.7990057515935874e+01 -1.3638038293733459e+02 0 0 0
2538 73 1 0.0000000000000000e+00 -8.7946571559482663e+01 -4.8552144718431101e+01 -1.3803287143791187e+02 0 0 0
6250 179 4 0.0000000000000000e+00 -8.7409336582375005e+01 -3.5421869922252618e+01 -1.2934708203037658e+02 0 0 0
3736 107 4 0.0000000000000000e+00 -8.7891505951615542e+01 -4.7288438729493606e+01 -1.2606012537755988e+02 0 0 0
6249 179 4 0.0000000000000000e+00 -7.9421462225290782e+01 -4.0732863434715448e+01 -1.2823702090901739e+02 0 0 0
6248 179 3 0.0000000000000000e+00 -7.4497659322047696e+01 -4.7129096135062561e+01 -1.3393991303575481e+02 0 0 0
1614 47 1 0.0000000000000000e+00 -6.5171188164695835e+01 -4.7354869449436194e+01 -1.2734775327775625e+02 0 0 0
1539 44 2 0.0000000000000000e+00 -6.5014741235107039e+01 -3.5391402451627911e+01 -1.2639164621405303e+02 0 0 0
1540 44 2 0.0000000000000000e+00 -5.6954242455788574e+01 -3.9455483101216565e+01 -1.3024679792572425e+02 0 0 0
2550 73 2 0.0000000000000000e+00 -1.3820382170034975e+02 -2.2133658899382024e+01 -1.3562003210613756e+02 0 0 0
2542 73 2 0.0000000000000000e+00 -1.0565966954991428e+02 -2.2173066444569564e+01 -1.3973051706841534e+02 0 0 0
6251 179 4 0.0000000000000000e+00 -8.3775374523043922e+01 -2.8462650322811673e+01 -1.3564251690434918e+02 0 0 0
1538 44 2 0.0000000000000000e+00 -7.2037382013775201e+01 -2.8161975121606737e+01 -1.2886497237398021e+02 0 0 0
2825 81 1 0.0000000000000000e+00 -5.6782373568438842e+01 -2.9766069436823564e+01 -1.3052412198906265e+02 0 0 0
2824 81 2 0.0000000000000000e+00 -4.7096494923005700e+01 -3.2660269263867939e+01 -1.2848547528326660e+02 0 0 0
2549 73 2 0.0000000000000000e+00 -1.4121094329143227e+02 -2.1691195709625209e+01 -1.2618407584399762e+02 0 0 0
2551 73 2 0.0000000000000000e+00 -1.3779743321560110e+02 -1.2527490532576865e+01 -1.3269346916670435e+02 0 0 0
3729 107 4 0.0000000000000000e+00 -1.2954954513386966e+02 -1.1593674818796901e+01 -1.3884803135043080e+02 0 0 0
2543 73 2 0.0000000000000000e+00 -1.1383007419579802e+02 -2.0169921646924248e+01 -1.3454294472479307e+02 0 0 0
2544 73 2 0.0000000000000000e+00 -1.1769125823933192e+02 -1.3979662316088589e+01 -1.2773262596228302e+02 0 0 0
6526 187 4 0.0000000000000000e+00 -9.6107402397246872e+01 -1.2037447820950408e+01 -1.3192223206556929e+02 0 0 0
1536 44 2 0.0000000000000000e+00 -8.2975713366151524e+01 -1.3560809032352005e+01 -1.3355870160785773e+02 0 0 0
6253 179 4 0.0000000000000000e+00 -7.1471526605852588e+01 -1.8302289731781798e+01 -1.3942920792212632e+02 0 0 0
1537 44 1 0.0000000000000000e+00 -7.8997100133304855e+01 -2.1249745107554467e+01 -1.2896358701591171e+02 0 0 0
6254 179 4 0.0000000000000000e+00 -6.3449940412051077e+01 -2.1494226331612357e+01 -1.3358652056404316e+02 0 0 0
5110 146 4 0.0000000000000000e+00 -4.1111772948926067e+01 -1.3886165141393997e+01 -1.3694370622386182e+02 0 0 0
2552 73 1 0.0000000000000000e+00 -1.3759974384557074e+02 -3.4161260250895893e+00 -1.2738200228714459e+02 0 0 0
3728 107 3 0.0000000000000000e+00 -1.2784418815274287e+02 -3.7684228695439588e+00 -1.3304296045126301e+02 0 0 0
3727 107 4 0.0000000000000000e+00 -1.2181755355377322e+02 6.2964679177533622e-01 -1.2659292659718849e+02 0 0 0
6525 187 4 0.0000000000000000e+00 -1.0261956907832179e+02 -4.9089513729129806e+00 -1.3414694378629483e+02 0 0 0
6524 187 4 0.0000000000000000e+00 -1.0463742512863537e+02 4.6382809019620437e+00 -1.3512243755644909e+02 0 0 0
1535 44 2 0.0000000000000000e+00 -8.3611707191189595e+01 -4.2004676452403782e+00 -1.3602654876799753e+02 0 0 0
6530 187 4 0.0000000000000000e+00 -6.7798139307577102e+01 -1.0314139433636427e-01 -1.3050676458964716e+02 0 0 0
2077 60 2 0.0000000000000000e+00 -5.5114885496589721e+01 2.2923189261847865e+00 -1.3705900123015195e+02 0 0 0
5109 146 4 0.0000000000000000e+00 -4.0930046365884195e+01 -3.6974325579342011e+00 -1.3876983245448383e+02 0 0 0
3463 99 2 0.0000000000000000e+00 -1.7907224711821723e+02 9.5834708804862139e+00 -1.3762403399882999e+02 0 0 0
6892 197 3 0.0000000000000000e+00 -1.6322099905767129e+02 9.8932011563776960e+00 -1.3128472798984524e+02 0 0 0
3462 99 1 0.0000000000000000e+00 -1.7116078547669045e+02 1.5711343424334492e+01 -1.3693824535766299e+02 0 0 0
6891 197 4 0.0000000000000000e+00 -1.5527010175821030e+02 1.6335784508719431e+01 -1.3249790502713824e+02 0 0 0
6297 180 3 0.0000000000000000e+00 -1.3948907965722898e+02 1.6748444891508019e+01 -1.3085562325049406e+02 0 0 0
6298 180 4 0.0000000000000000e+00 -1.2976869476244289e+02 1.3222720776445467e+01 -1.3187418073286489e+02 0 0 0
6299 180 4 0.0000000000000000e+00 -1.2365378845446499e+02 6.3593725745846443e+00 -1.3598211428281186e+02 0 0 0
6522 187 4 0.0000000000000000e+00 -1.0510392788825931e+02 1.4278952360403627e+01 -1.3104199078056254e+02 0 0 0
1534 44 2 0.0000000000000000e+00 -8.5582602847063541e+01 5.6886639040942075e+00 -1.3493776550373255e+02 0 0 0
5911 169 4 0.0000000000000000e+00 -7.6886415617235969e+01 1.1201142729631314e+01 -1.2658401892068466e+02 0 0 0
2075 60 2 0.0000000000000000e+00 -6.5322204572968431e+01 1.4374883161704593e+01 -1.2809157718346773e+02 0 0 0
2076 60 1 0.0000000000000000e+00 -6.0555979658713220e+01 1.0160683018000066e+01 -1.3577471873523660e+02 0 0 0
6534 187 4 0.0000000000000000e+00 -4.5455435471113312e+01 1.2131275180557758e+01 -1.3055852259938985e+02 0 0 0
6535 187 3 0.0000000000000000e+00 -5.0847376737996761e+01 1.5635759443566386e+01 -1.3839314993359400e+02 0 0 0
5108 146 4 0.0000000000000000e+00 -4.0492473719926423e+01 6.2766816971163504e+00 -1.3890389547263095e+02 0 0 0
3461 99 2 0.0000000000000000e+00 -1.6384157974529492e+02 2.2436202996875082e+01 -1.3879033456667523e+02 0 0 0
3460 99 2 0.0000000000000000e+00 -1.6036063586732982e+02 3.1211649221886962e+01 -1.3691073312216878e+02 0 0 0
6890 197 4 0.0000000000000000e+00 -1.4928082573516232e+02 2.0875731634049842e+01 -1.3909779053174111e+02 0 0 0
6295 180 4 0.0000000000000000e+00 -1.5040982148177150e+02 3.0723063284160396e+01 -1.2656003914273077e+02 0 0 0
6889 197 4 0.0000000000000000e+00 -1.4524739677508481e+02 2.9989228434444716e+01 -1.3984734715517172e+02 0 0 0
6296 180 4 0.0000000000000000e+00 -1.4746075216433354e+02 2.1539008037379709e+01 -1.2811452507584852e+02 0 0 0
1740 50 1 0.0000000000000000e+00 -1.3121201964717778e+02 2.3547182432184236e+01 -1.3440567943187420e+02 0 0 0
6521 187 3 0.0000000000000000e+00 -1.1048894798261446e+02 2.1608521090500155e+01 -1.3115967934006932e+02 0 0 0
6520 187 4 0.0000000000000000e+00 -1.1661924325313910e+02 2.9624130316634496e+01 -1.3073668390901597e+02 0 0 0
2071 60 2 0.0000000000000000e+00 -9.8628104022549124e+01 3.2020187288143333e+01 -1.3066336507449665e+02 0 0 0
2072 60 2 0.0000000000000000e+00 -8.8395733465769638e+01 3.0829075784177462e+01 -1.3124855010141292e+02 0 0 0
2073 60 2 0.0000000000000000e+00 -7.9897982902582115e+01 2.6716765526774072e+01 -1.2927572412300748e+02 0 0 0
5137 147 4 0.0000000000000000e+00 -6.6665034766586004e+01 2.6988939400415113e+01 -1.3506292484175299e+02 0 0 0
5138 147 4 0.0000000000000000e+00 -5.8240320209716778e+01 2.2727668848630035e+01 -1.3264510100239056e+02 0 0 0
3387 97 2 0.0000000000000000e+00 -5.4147932885533322e+01 3.0905687038287127e+01 -1.2654051628096458e+02 0 0 0
3388 97 2 0.0000000000000000e+00 -4.5856963530870715e+01 2.5235428793197379e+01 -1.2697731428078255e+02 0 0 0
6294 180 4 0.0000000000000000e+00 -1.5436079199369573e+02 4.0467124060983380e+01 -1.2831133745079569e+02 0 0 0
3458 99 2 0.0000000000000000e+00 -1.5427352989110679e+02 4.5858981291269266e+01 -1.3851698021786535e+02 0 0 0
6515 187 4 0.0000000000000000e+00 -1.3208446242688299e+02 4.4871311071141257e+01 -1.3041073368816845e+02 0 0 0
6514 187 3 0.0000000000000000e+00 -1.2492539102245891e+02 4.2107579731286748e+01 -1.3697538455154998e+02 0 0 0
6513 187 4 0.0000000000000000e+00 -1.1589274890975261e+02 3.9568108468704999e+01 -1.3441249596370065e+02 0 0 0
2070 60 2 0.0000000000000000e+00 -1.0738766115926791e+02 3.4167708225614433e+01 -1.3557393666008301e+02 0 0 0
1734 50 2 0.0000000000000000e+00 -1.0573230273673934e+02 4.3258259476441076e+01 -1.2786268041311972e+02 0 0 0
5134 147 4 0.0000000000000000e+00 -7.3013900270406907e+01 4.3846112288303239e+01 -1.2801197553869201e+02 0 0 0
5135 147 3 0.0000000000000000e+00 -6.9981429806394303e+01 4.6189828068959748e+01 -1.3759630833931655e+02 0 0 0
5136 147 4 0.0000000000000000e+00 -6.6385536109576535e+01 3.6764081003750803e+01 -1.3789516619948066e+02 0 0 0
2492 72 2 0.0000000000000000e+00 -6.3547432905721763e+01 3.5692030443454030e+01 -1.2641197565614277e+02 0 0 0
2493 72 2 0.0000000000000000e+00 -6.1303794709041419e+01 4.5255151531633139e+01 -1.2947485046002248e+02 0 0 0
3194 92 2 0.0000000000000000e+00 -5.0622310135467778e+01 4.0711466527967673e+01 -1.3528858122704452e+02 0 0 0
3193 92 2 0.0000000000000000e+00 -4.1757744403904375e+01 3.6168532794008826e+01 -1.3595139170146538e+02 0 0 0
2534 73 2 0.0000000000000000e+00 -8.5486445486638559e+01 -5.6175849308076089e+01 -1.2088819325576853e+02 0 0 0
5565 159 4 0.0000000000000000e+00 -9.7432978944528372e+01 -4.2488251801677194e+01 -1.2595223314608842e+02 0 0 0
5564 159 4 0.0000000000000000e+00 -9.6228558922041088e+01 -4.7013312407560186e+01 -1.1697211869779306e+02 0 0 0
3737 107 4 0.0000000000000000e+00 -8.8129062313369602e+01 -3.9880166408240783e+01 -1.1885103401442974e+02 0 0 0
2533 73 2 0.0000000000000000e+00 -8.4254928526585161e+01 -4.8867823871133673e+01 -1.1426931455096454e+02 0 0 0
1615 47 2 0.0000000000000000e+00 -6.3684437186468251e+01 -4.7072483784466634e+01 -1.1754770683952610e+02 0 0 0
1616 47 2 0.0000000000000000e+00 -5.6810771083641868e+01 -4.0326100779839145e+01 -1.1796972786366440e+02 0 0 0
2087 60 2 0.0000000000000000e+00 -4.9594540393594158e+01 -4.7463008537255831e+01 -1.1788858242451857e+02 0 0 0
2086 60 2 0.0000000000000000e+00 -4.6262256725936730e+01 -3.7986918918807667e+01 -1.1948802351457189e+02 0 0 0
3744 107 4 0.0000000000000000e+00 -1.4125299768597452e+02 -2.7282880168851754e+01 -1.1491005656797525e+02 0 0 0
1374 40 2 0.0000000000000000e+00 -8.5405827494626223e+01 -2.4351255792934428e+01 -1.1750463209857098e+02 0 0 0
1373 40 2 0.0000000000000000e+00 -7.6551715341836996e+01 -2.8651675892547910e+01 -1.1858233547474372e+02 0 0 0
1372 40 2 0.0000000000000000e+00 -6.6922658570838223e+01 -3.0857404802896468e+01 -1.1672393820127296e+02 0 0 0
6255 179 3 0.0000000000000000e+00 -6.1922706191842686e+01 -2.2104852712917889e+01 -1.2369012784291205e+02 0 0 0
2085 60 2 0.0000000000000000e+00 -4.5139392162261522e+01 -2.8489557681333732e+01 -1.1799086446547213e+02 0 0 0
2548 73 2 0.0000000000000000e+00 -1.4273596060165977e+02 -1.5731412461252489e+01 -1.1893848256982464e+02 0 0 0
3742 107 3 0.0000000000000000e+00 -1.2348061279603796e+02 -2.0044562173732015e+01 -1.1543740498050200e+02 0 0 0
2545 73 1 0.0000000000000000e+00 -1.2327118396053328e+02 -1.0298048976926665e+01 -1.2022323164986607e+02 0 0 0
3743 107 4 0.0000000000000000e+00 -1.3369091528187698e+02 -2.0728044571151770e+01 -1.1584209262121789e+02 0 0 0
5553 159 4 0.0000000000000000e+00 -1.0932896274819711e+02 -1.1172565381524961e+01 -1.2032071476398622e+02 0 0 0
3741 107 4 0.0000000000000000e+00 -1.1369724404505213e+02 -2.0069099044067762e+01 -1.1329087111534105e+02 0 0 0
6527 187 4 0.0000000000000000e+00 -8.9825380091133241e+01 -1.4113638807880877e+01 -1.2376795190338919e+02 0 0 0
5555 159 3 0.0000000000000000e+00 -9.3216775187337134e+01 -1.0925274506076985e+01 -1.1477304258366466e+02 0 0 0
5556 159 4 0.0000000000000000e+00 -8.4151740519786713e+01 -1.5039596428576120e+01 -1.1265002951895187e+02 0 0 0
6528 187 3 0.0000000000000000e+00 -7.9705252050463102e+01 -1.3054039780961519e+01 -1.2205071524968658e+02 0 0 0
6256 179 4 0.0000000000000000e+00 -6.7275301122820665e+01 -1.9923563274929926e+01 -1.1557796905038633e+02 0 0 0
2206 64 2 0.0000000000000000e+00 -5.1498400679803893e+01 -1.8070049737037351e+01 -1.1597888111697428e+02 0 0 0
2084 60 2 0.0000000000000000e+00 -4.0805517481450238e+01 -2.1149748961122484e+01 -1.2226155789383013e+02 0 0 0
6895 197 4 0.0000000000000000e+00 -1.8699043490352534e+02 2.9211126817459920e+00 -1.2461038006650497e+02 0 0 0
2546 73 2 0.0000000000000000e+00 -1.3020574716551118e+02 -7.7881989674845080e+00 -1.1353550135854233e+02 0 0 0
3726 107 4 0.0000000000000000e+00 -1.1600535730328397e+02 5.1382174218828736e+00 -1.1989425335210638e+02 0 0 0
5552 159 4 0.0000000000000000e+00 -1.1446121375424558e+02 -7.9096948027592937e+00 -1.1240401425188479e+02 0 0 0
5554 159 4 0.0000000000000000e+00 -1.0063135072730276e+02 -6.8851757218858287e+00 -1.1934077950396626e+02 0 0 0
1533 44 2 0.0000000000000000e+00 -8.6031384519301909e+01 3.1047999919440961e+00 -1.2494745621026978e+02 0 0 0
1532 44 2 0.0000000000000000e+00 -8.4145761187938234e+01 9.2851316126496486e-01 -1.1543885889116439e+02 0 0 0
6529 187 4 0.0000000000000000e+00 -7.3957964840870872e+01 -5.3573911909406196e+00 -1.2456940281175943e+02 0 0 0
5532 159 4 0.0000000000000000e+00 -7.3802887150656929e+01 -2.1247867674271479e+00 -1.1231623081028604e+02 0 0 0
5910 169 4 0.0000000000000000e+00 -7.1811863887424025e+01 4.9557387796285628e+00 -1.2090809509802369e+02 0 0 0
5531 159 4 0.0000000000000000e+00 -6.5469213575416958e+01 -3.9425485469082910e+00 -1.1801289856293428e+02 0 0 0
6531 187 4 0.0000000000000000e+00 -6.1700477728749917e+01 5.3940351320831983e+00 -1.2521732105959369e+02 0 0 0
6894 197 4 0.0000000000000000e+00 -1.7835456242205044e+02 7.0025500340914579e+00 -1.2062032205425936e+02 0 0 0
6893 197 4 0.0000000000000000e+00 -1.6889282329825176e+02 7.0797944113109548e+00 -1.2336064075646144e+02 0 0 0
2553 73 2 0.0000000000000000e+00 -1.3755209559608880e+02 6.0013648767597116e+00 -1.2570878819565040e+02 0 0 0
2554 73 2 0.0000000000000000e+00 -1.3309224067840123e+02 1.3810620003739828e+01 -1.2041036988457215e+02 0 0 0
6497 186 4 0.0000000000000000e+00 -1.0015119667054711e+02 1.9131804913540719e+01 -1.1854011578342359e+02 0 0 0
5913 169 4 0.0000000000000000e+00 -9.1123139487254861e+01 1.4224614243894004e+01 -1.1528675339987853e+02 0 0 0
5912 169 3 0.0000000000000000e+00 -8.3151123839905608e+01 1.5639551242784112e+01 -1.2094995318588596e+02 0 0 0
5909 169 4 0.0000000000000000e+00 -6.4457521622267166e+01 9.3179986368240186e+00 -1.1628939854294978e+02 0 0 0
5139 147 4 0.0000000000000000e+00 -5.5375168855121700e+01 1.7270009116693799e+01 -1.2457695234246899e+02 0 0 0
6532 187 4 0.0000000000000000e+00 -5.2730493046185117e+01 6.3497514020582484e+00 -1.2142080864375856e+02 0 0 0
6533 187 4 0.0000000000000000e+00 -4.3147200028894062e+01 8.7868509020819481e+00 -1.2161172855419478e+02 0 0 0
2555 73 2 0.0000000000000000e+00 -1.3744337235620000e+02 2.0801432647293360e+01 -1.1394580852225133e+02 0 0 0
1739 50 2 0.0000000000000000e+00 -1.3146337072252709e+02 2.5422581317778548e+01 -1.2487611743320022e+02 0 0 0
1738 50 2 0.0000000000000000e+00 -1.2234825778619690e+02 2.7795696185896006e+01 -1.2284746185724947e+02 0 0 0
1737 50 2 0.0000000000000000e+00 -1.1428226182189576e+02 3.0499171431033702e+01 -1.1747912234784158e+02 0 0 0
1736 50 2 0.0000000000000000e+00 -1.0508717847690060e+02 3.1382578984457417e+01 -1.2129228097227539e+02 0 0 0
6498 186 4 0.0000000000000000e+00 -9.6315258045796071e+01 2.7735671473669026e+01 -1.1915690742429221e+02 0 0 0
5132 147 4 0.0000000000000000e+00 -8.3311775713380158e+01 3.1779856825539440e+01 -1.1688874611999395e+02 0 0 0
2074 60 2 0.0000000000000000e+00 -7.2406459571044877e+01 2.0364241592321839e+01 -1.2522779692800269e+02 0 0 0
2490 72 2 0.0000000000000000e+00 -6.9048725115069757e+01 2.0442439801127424e+01 -1.1396075296290626e+02 0 0 0
2491 72 2 0.0000000000000000e+00 -6.5141635550783349e+01 2.7328906919568610e+01 -1.2043675335839700e+02 0 0 0
5142 147 3 0.0000000000000000e+00 -5.7630485605626717e+01 3.2537599055416742e+01 -1.1429139434173955e+02 0 0 0
5140 147 4 0.0000000000000000e+00 -5.2714443433000099e+01 2.2026456715147319e+01 -1.1535994947550090e+02 0 0 0
4912 141 4 0.0000000000000000e+00 -4.0694325703849287e+01 2.7173086752773017e+01 -1.1575020734307876e+02 0 0 0
6875 197 4 0.0000000000000000e+00 -1.4402584646799039e+02 4.4434615354790424e+01 -1.1646582863849613e+02 0 0 0
6516 187 4 0.0000000000000000e+00 -1.3797681201139306e+02 3.8419450050632996e+01 -1.2473512618534288e+02 0 0 0
6518 187 4 0.0000000000000000e+00 -1.2450023833270117e+02 3.8516347434551797e+01 -1.1720351217176656e+02 0 0 0
6517 187 4 0.0000000000000000e+00 -1.3393548335044241e+02 3.4769095056623684e+01 -1.1610871090620293e+02 0 0 0
6519 187 4 0.0000000000000000e+00 -1.1867509399048795e+02 3.8001474979796825e+01 -1.2540250797778683e+02 0 0 0
2936 84 2 0.0000000000000000e+00 -9.7880794623912038e+01 4.5615212915407575e+01 -1.1332804855916395e+02 0 0 0
1735 50 2 0.0000000000000000e+00 -9.7868703468895390e+01 3.8087624461790327e+01 -1.2359824129750268e+02 0 0 0
2937 84 1 0.0000000000000000e+00 -1.0629378482200424e+02 4.1741077318158268e+01 -1.1395489506185223e+02 0 0 0
5133 147 4 0.0000000000000000e+00 -8.1261122004212524e+01 3.9450176081870559e+01 -1.2321493151490600e+02 0 0 0
5145 147 4 0.0000000000000000e+00 -8.1701056237986080e+01 4.6316324475515977e+01 -1.1432717092658540e+02 0 0 0
5144 147 4 0.0000000000000000e+00 -7.3147694410233655e+01 4.1423789639433927e+01 -1.1288416509864490e+02 0 0 0
3386 97 2 0.0000000000000000e+00 -5.5668390301014220e+01 3.9771241981956791e+01 -1.2108545936726128e+02 0 0 0
4913 141 4 0.0000000000000000e+00 -4.6238603264340966e+01 3.3882998552987274e+01 -1.2054775557251943e+02 0 0 0
4914 141 4 0.0000000000000000e+00 -4.0399655049116909e+01 4.2310957915808849e+01 -1.2138619122357008e+02 0 0 0
5561 159 4 0.0000000000000000e+00 -7.6523488068451030e+01 -4.9184540101119580e+01 -9.8408468695002384e+01 0 0 0
5563 159 4 0.0000000000000000e+00 -9.3562686272697789e+01 -4.6793814476039316e+01 -1.0763348011206882e+02 0 0 0
5562 159 3 0.0000000000000000e+00 -8.5478158115363811e+01 -4.7167061194615790e+01 -1.0261999181453822e+02 0 0 0
2531 73 1 0.0000000000000000e+00 -8.2906390885656762e+01 -3.6350053387861038e+01 -9.9655731663785758e+01 0 0 0
2532 73 2 0.0000000000000000e+00 -8.4719694973665753e+01 -4.0427008442721942e+01 -1.0915423970409768e+02 0 0 0
3738 107 4 0.0000000000000000e+00 -9.4342802443926956e+01 -3.5622462434820257e+01 -1.1205367831619986e+02 0 0 0
1371 40 2 0.0000000000000000e+00 -6.1973055267295685e+01 -3.6914779379935084e+01 -1.1019415963554873e+02 0 0 0
1370 40 2 0.0000000000000000e+00 -5.4911536148952081e+01 -4.1100864364770842e+01 -1.0426664810031139e+02 0 0 0
1369 40 1 0.0000000000000000e+00 -4.7275468253281687e+01 -4.2772062715001006e+01 -9.8754745723760109e+01 0 0 0
1368 40 2 0.0000000000000000e+00 -4.1115726344649836e+01 -4.8140224636605019e+01 -1.0467836721562479e+02 0 0 0
3745 107 4 0.0000000000000000e+00 -1.5069029784292968e+02 -2.8849811150466984e+01 -1.1109767971274218e+02 0 0 0
3739 107 4 0.0000000000000000e+00 -9.8588805773119219e+01 -2.9499287244856827e+01 -1.0530525070428149e+02 0 0 0
3740 107 4 0.0000000000000000e+00 -1.0560994553631892e+02 -2.3378674062520538e+01 -1.0824404580997225e+02 0 0 0
5558 159 4 0.0000000000000000e+00 -7.1120671784506484e+01 -2.9751755536044893e+01 -1.0622632718087948e+02 0 0 0
5557 159 4 0.0000000000000000e+00 -7.7961766176362701e+01 -2.3035841142276315e+01 -1.1006770658978760e+02 0 0 0
6257 179 4 0.0000000000000000e+00 -6.0998354697768683e+01 -2.3955962500912918e+01 -1.0942207377136147e+02 0 0 0
6258 179 4 0.0000000000000000e+00 -6.1277907865482533e+01 -2.9383073934848266e+01 -1.0140572479785460e+02 0 0 0
1617 47 2 0.0000000000000000e+00 -5.1681537820533300e+01 -3.4313102163223995e+01 -1.1187198122183176e+02 0 0 0
1618 47 2 0.0000000000000000e+00 -4.9218449886774508e+01 -2.8113967757817012e+01 -1.0475725192087482e+02 0 0 0
1619 47 2 0.0000000000000000e+00 -4.3498271331712196e+01 -2.3256488625709235e+01 -9.8825555679979743e+01 0 0 0
5351 153 4 0.0000000000000000e+00 -4.1156741487583503e+01 -2.2944045446498826e+01 -1.0924780719083702e+02 0 0 0
2547 73 2 0.0000000000000000e+00 -1.3938211266808531e+02 -1.1106414474726416e+01 -1.1168013614607010e+02 0 0 0
5741 165 4 0.0000000000000000e+00 -1.3142853531828158e+02 -1.1658290100562166e+01 -1.0303148181454472e+02 0 0 0
5551 159 4 0.0000000000000000e+00 -1.1816891259582361e+02 -1.3554217667295292e+01 -1.0474500486502791e+02 0 0 0
1376 40 1 0.0000000000000000e+00 -9.9190018185778982e+01 -1.4723794739783969e+01 -1.0611875695487181e+02 0 0 0
1377 40 2 0.0000000000000000e+00 -1.0647882952988070e+02 -9.7170962223281272e+00 -1.0185470396742974e+02 0 0 0
1375 40 2 0.0000000000000000e+00 -9.2327238120516327e+01 -2.0802026547787289e+01 -1.1084239097538956e+02 0 0 0
2210 64 2 0.0000000000000000e+00 -8.4317510760517422e+01 -2.0404467275182018e+01 -1.0127902016794393e+02 0 0 0
5534 159 3 0.0000000000000000e+00 -8.9125710532630961e+01 -9.1457850267251395e+00 -1.0309476565772134e+02 0 0 0
2209 64 1 0.0000000000000000e+00 -7.6661773171502887e+01 -1.4442596673821086e+01 -1.0197482685261431e+02 0 0 0
2208 64 2 0.0000000000000000e+00 -6.8754728958805586e+01 -1.3356147543114634e+01 -1.0821680027961371e+02 0 0 0
2207 64 2 0.0000000000000000e+00 -5.9180138603617507e+01 -1.2715558464252789e+01 -1.1181997656393212e+02 0 0 0
4726 136 4 0.0000000000000000e+00 -5.3560914922205200e+01 -1.8645349877551730e+01 -1.0491088609406694e+02 0 0 0