LAMMPS data file via write_data, version 5 Jun 2019, timestep = 440000000

7000 atoms
4 atom types
7283 bonds
3 bond types
6600 angles
2 angle types

-5.0000000000000000e+02 5.0000000000000000e+02 xlo xhi
-5.0000000000000000e+02 5.0000000000000000e+02 ylo yhi
-5.0000000000000000e+02 5.0000000000000000e+02 zlo zhi

Masses

1 1000
2 1000
3 1000
4 1000

Pair Coeffs # lj/cut

1 0.296 10
2 0.296 10
3 0.296 10
4 0.296 10

Angle Coeffs # cosine

1 2
2 2

Atoms # full

2074 60 2 0.0000000000000000e+00 -6.3139546895858608e+01 1.0536199933278745e+01 -1.6230541296419969e+02 0 0 0
2066 60 2 0.0000000000000000e+00 -1.0890747183310457e+02 3.6106069702727410e+01 -1.6202467578580394e+02 0 0 0
5426 156 4 0.0000000000000000e+00 -6.4450636541264359e+01 3.9715812749265261e+01 -1.6838558480206433e+02 0 0 0
2071 60 2 0.0000000000000000e+00 -8.5960210753323310e+01 6.0520836519747701e-01 -1.4822432229935649e+02 0 0 0
6302 181 4 0.0000000000000000e+00 -4.9920474250583538e+01 1.9371747465625462e+00 -1.4934343821695455e+02 0 0 0
5355 153 4 0.0000000000000000e+00 -3.5782051086053663e+01 -8.2629683550840003e+00 -1.5162761971108503e+02 0 0 0
2069 60 1 0.0000000000000000e+00 -9.6506721780479864e+01 1.3777483042639336e+01 -1.4890331788091220e+02 0 0 0
2072 60 2 0.0000000000000000e+00 -7.8651671751092408e+01 5.0739545169575377e+00 -1.5359705048482664e+02 0 0 0
2073 60 2 0.0000000000000000e+00 -7.1809060431212046e+01 6.1068080016057786e+00 -1.6090449541978356e+02 0 0 0
2075 60 2 0.0000000000000000e+00 -5.7011178822876587e+01 9.4036907636466776e+00 -1.5427731384592749e+02 0 0 0
6534 187 4 0.0000000000000000e+00 -6.5847261425391338e+01 9.8579537475261194e+00 -1.4919525403377568e+02 0 0 0
1633 47 2 0.0000000000000000e+00 -3.2137948538519311e+01 1.3945307475501382e+01 -1.5216484831968449e+02 0 0 0
3739 107 4 0.0000000000000000e+00 -1.3676163552156734e+02 2.9661404937848690e+01 -1.5762106500730044e+02 0 0 0
3740 107 4 0.0000000000000000e+00 -1.2737457454073666e+02 2.9483677751399437e+01 -1.5479626317587284e+02 0 0 0
2068 60 2 0.0000000000000000e+00 -9.9890631753054336e+01 2.2593071924842274e+01 -1.5181099457706569e+02 0 0 0
2067 60 2 0.0000000000000000e+00 -1.0518458995329317e+02 2.9718013287887512e+01 -1.5565197937739080e+02 0 0 0
6536 187 4 0.0000000000000000e+00 -7.5750273576073582e+01 2.6251601351291367e+01 -1.4989197928496793e+02 0 0 0
6535 187 3 0.0000000000000000e+00 -7.0362552047852304e+01 1.8022950376992728e+01 -1.4847138590525486e+02 0 0 0
3738 107 4 0.0000000000000000e+00 -1.4040578794091573e+02 3.8409186710079624e+01 -1.5634094943193577e+02 0 0 0
2539 73 2 0.0000000000000000e+00 -1.2477016092721188e+02 4.3355267462555162e+01 -1.5378994261180623e+02 0 0 0
2538 73 1 0.0000000000000000e+00 -1.3092722058347087e+02 3.7416017252963350e+01 -1.4837232536096465e+02 0 0 0
3741 107 4 0.0000000000000000e+00 -1.2067945955384850e+02 3.4016848925603270e+01 -1.4977198563205854e+02 0 0 0
5427 156 4 0.0000000000000000e+00 -5.8180278904339758e+01 3.5955727621193880e+01 -1.6124049024421882e+02 0 0 0
5428 156 4 0.0000000000000000e+00 -4.9801532013998603e+01 3.5141330193296334e+01 -1.5647915684597817e+02 0 0 0
5429 156 3 0.0000000000000000e+00 -4.3128064021539693e+01 3.2680606262783201e+01 -1.4894997565509252e+02 0 0 0
5353 153 4 0.0000000000000000e+00 -4.4317599039050691e+01 -1.0479351312414364e+01 -1.3509223511411224e+02 0 0 0
5354 153 4 0.0000000000000000e+00 -3.9245822695348643e+01 -1.2389348180163571e+01 -1.4335004160963760e+02 0 0 0
6533 187 4 0.0000000000000000e+00 -6.3594193743489257e+01 2.0765322790680676e+00 -1.4316221622810303e+02 0 0 0
6532 187 4 0.0000000000000000e+00 -6.3465507108213366e+01 -5.8700517085573125e+00 -1.3689162206851009e+02 0 0 0
6301 181 4 0.0000000000000000e+00 -5.3073095536243166e+01 -5.9130254758718168e+00 -1.4320244802801298e+02 0 0 0
2078 60 2 0.0000000000000000e+00 -5.3180780364692716e+01 2.7959807692141263e+00 -1.3522679072600508e+02 0 0 0
2070 60 2 0.0000000000000000e+00 -9.3471899107330216e+01 5.4732310905318515e+00 -1.4468769364007429e+02 0 0 0
2077 60 2 0.0000000000000000e+00 -5.6418843776961573e+01 1.0239181751048800e+01 -1.4009675463038081e+02 0 0 0
3395 97 2 0.0000000000000000e+00 -6.8165632580910398e+01 1.5313614694767374e+01 -1.3913902024397777e+02 0 0 0
2076 60 1 0.0000000000000000e+00 -5.8759100465887613e+01 1.6054202979040326e+01 -1.4750432698490400e+02 0 0 0
6303 181 4 0.0000000000000000e+00 -4.6554556840721794e+01 8.4045231190686902e+00 -1.4248092553137863e+02 0 0 0
6304 181 3 0.0000000000000000e+00 -4.2932102149471383e+01 1.5577991552773986e+01 -1.3706846041404251e+02 0 0 0
1635 47 1 0.0000000000000000e+00 -3.7203207788866941e+01 4.7917874300927474e+00 -1.3616128197097373e+02 0 0 0
1634 47 2 0.0000000000000000e+00 -3.4334309777185922e+01 7.2946061151917823e+00 -1.4552580904092719e+02 0 0 0
2536 73 2 0.0000000000000000e+00 -1.2170019259005340e+02 2.4328537350845927e+01 -1.3612095730082501e+02 0 0 0
6520 187 4 0.0000000000000000e+00 -1.0067571018960777e+02 3.0461473445088792e+01 -1.3741290366118534e+02 0 0 0
6521 187 3 0.0000000000000000e+00 -9.6159249596094469e+01 2.1748918882815616e+01 -1.4054068453944021e+02 0 0 0
3394 97 2 0.0000000000000000e+00 -6.0207072397365295e+01 1.9723628024712962e+01 -1.3550231557312901e+02 0 0 0
3393 97 2 0.0000000000000000e+00 -5.1209913502529112e+01 2.4518344078667116e+01 -1.3526336795236992e+02 0 0 0
5430 156 4 0.0000000000000000e+00 -3.5100388734341202e+01 2.8993361113719732e+01 -1.4591222514517256e+02 0 0 0
3392 97 1 0.0000000000000000e+00 -4.1818549060664445e+01 2.6876733729929960e+01 -1.3786808451546784e+02 0 0 0
6305 181 4 0.0000000000000000e+00 -3.3945429059802521e+01 1.8458098631071046e+01 -1.3957730092421676e+02 0 0 0
3736 107 4 0.0000000000000000e+00 -1.4067777952951795e+02 4.1435681204202169e+01 -1.4148164046253086e+02 0 0 0
2537 73 2 0.0000000000000000e+00 -1.2604530215224500e+02 3.1691038622090495e+01 -1.4173540102656168e+02 0 0 0
3735 107 3 0.0000000000000000e+00 -1.3198819231155258e+02 4.0055751404556268e+01 -1.3696697163764614e+02 0 0 0
2545 73 1 0.0000000000000000e+00 -1.2193713717002680e+02 4.2565086111182246e+01 -1.3945354809656746e+02 0 0 0
3742 107 3 0.0000000000000000e+00 -1.1332444187909981e+02 3.8564552332910615e+01 -1.4459799782180932e+02 0 0 0
2546 73 2 0.0000000000000000e+00 -1.1686717146827108e+02 3.6027673935805311e+01 -1.3427196993346905e+02 0 0 0
6519 187 4 0.0000000000000000e+00 -1.0389860106117337e+02 3.9296004847994261e+01 -1.3913578379759042e+02 0 0 0
6538 187 4 0.0000000000000000e+00 -8.6379236467751568e+01 3.8177643452206361e+01 -1.4187380608966126e+02 0 0 0
6539 187 4 0.0000000000000000e+00 -9.2598313001098589e+01 3.9690233716740643e+01 -1.3448196039043842e+02 0 0 0
6537 187 4 0.0000000000000000e+00 -7.9174954258485258e+01 3.4188591930736834e+01 -1.4545424618394915e+02 0 0 0
3204 92 2 0.0000000000000000e+00 -3.2563929370689195e+01 4.1972091373954633e+01 -1.4727400919316116e+02 0 0 0
3203 92 1 0.0000000000000000e+00 -3.8704723243035197e+01 3.8131473427951711e+01 -1.4070394974503276e+02 0 0 0
2816 81 2 0.0000000000000000e+00 -4.6899101058215770e+01 -6.7391408040507315e+01 -1.2203777789563343e+02 0 0 0
2345 67 2 0.0000000000000000e+00 -4.8358504205327947e+01 -5.6714914265842737e+01 -1.2715026347279027e+02 0 0 0
2815 81 2 0.0000000000000000e+00 -3.8307106733173789e+01 -6.2315086337476380e+01 -1.2299134858680067e+02 0 0 0
6530 187 4 0.0000000000000000e+00 -7.3191110126259105e+01 -1.3750943629014751e+01 -1.2206591972065057e+02 0 0 0
2080 60 2 0.0000000000000000e+00 -4.7183091471590380e+01 -1.1494250322929174e+01 -1.2272682563716634e+02 0 0 0
1620 47 2 0.0000000000000000e+00 -3.7857446615321301e+01 -1.8169128444865958e+01 -1.2620569573619755e+02 0 0 0
1621 47 1 0.0000000000000000e+00 -3.3896331058394253e+01 -1.0316976124294326e+01 -1.2193673578988293e+02 0 0 0
2533 73 2 0.0000000000000000e+00 -1.1554699349573420e+02 2.8945315766327635e+00 -1.2229012539631609e+02 0 0 0
6524 187 4 0.0000000000000000e+00 -1.0272803226477255e+02 -1.1004197327708709e+00 -1.2278816176669181e+02 0 0 0
6531 187 4 0.0000000000000000e+00 -6.8013845084009603e+01 -9.2754268667233220e+00 -1.2881173291339732e+02 0 0 0
5123 147 4 0.0000000000000000e+00 -6.0434916064025003e+01 1.9536010984875096e+00 -1.2595162274295923e+02 0 0 0
2079 60 2 0.0000000000000000e+00 -5.0829288048078901e+01 -5.0512437399841597e+00 -1.2958718060830697e+02 0 0 0
5352 153 3 0.0000000000000000e+00 -3.9099783833615149e+01 -4.2732029628194770e+00 -1.2920735033268545e+02 0 0 0
5351 153 4 0.0000000000000000e+00 -3.0968033781609883e+01 -5.0815664841232189e-01 -1.2512816434347444e+02 0 0 0
6300 180 4 0.0000000000000000e+00 -1.5444992436544493e+02 9.4615435191137234e+00 -1.3264152487479785e+02 0 0 0
6299 180 4 0.0000000000000000e+00 -1.4732640325356491e+02 5.5283370557097156e+00 -1.2841143055534724e+02 0 0 0
2534 73 2 0.0000000000000000e+00 -1.1230917984550663e+02 1.1487423770026290e+01 -1.2789028115602095e+02 0 0 0
6522 187 4 0.0000000000000000e+00 -9.8221389933873027e+01 1.4270614022615092e+01 -1.3409446894967786e+02 0 0 0
6523 187 4 0.0000000000000000e+00 -1.0121882827634556e+02 6.0534194806533961e+00 -1.2922268219757873e+02 0 0 0
6264 179 4 0.0000000000000000e+00 -9.9503120886557852e+01 1.6786685843420305e+01 -1.2378668849930190e+02 0 0 0
2486 72 2 0.0000000000000000e+00 -6.4868169547918455e+01 9.8107294832017757e+00 -1.2996042897221213e+02 0 0 0
2487 72 2 0.0000000000000000e+00 -6.6945195479259851e+01 1.6824238909337559e+01 -1.2364607386225246e+02 0 0 0
1636 47 2 0.0000000000000000e+00 -4.5337657258356785e+01 5.6707014557546698e+00 -1.3142064901998702e+02 0 0 0
1637 47 2 0.0000000000000000e+00 -5.1280212642703333e+01 1.0963866601965202e+01 -1.2557119540985705e+02 0 0 0
5350 153 4 0.0000000000000000e+00 -3.2146889135949436e+01 9.4325071871885289e+00 -1.2570417708313661e+02 0 0 0
2940 84 2 0.0000000000000000e+00 -1.5951159887003220e+02 2.2491888546104249e+01 -1.2935790726273387e+02 0 0 0
1739 50 2 0.0000000000000000e+00 -1.4475395610613683e+02 2.5976620266209750e+01 -1.2132045653744933e+02 0 0 0
3733 107 4 0.0000000000000000e+00 -1.2490146812973586e+02 2.7931282692031129e+01 -1.2336190226356042e+02 0 0 0
2535 73 2 0.0000000000000000e+00 -1.1421159174262161e+02 2.0397467244210841e+01 -1.3219111374371124e+02 0 0 0
2547 73 2 0.0000000000000000e+00 -1.1298982017934925e+02 2.8528548378531475e+01 -1.2813536195028985e+02 0 0 0
2548 73 2 0.0000000000000000e+00 -1.1638000145827316e+02 2.0807459707620435e+01 -1.2170501112115342e+02 0 0 0
6265 179 4 0.0000000000000000e+00 -1.0283493718040393e+02 2.5016047633354752e+01 -1.2848982423314931e+02 0 0 0
5349 153 4 0.0000000000000000e+00 -3.1415050958230012e+01 1.9070341316047333e+01 -1.2630857695308087e+02 0 0 0
5348 153 4 0.0000000000000000e+00 -3.8217489063257830e+01 2.6348264521249142e+01 -1.2498015715149377e+02 0 0 0
2939 84 2 0.0000000000000000e+00 -1.6099918465796503e+02 3.2114845497519241e+01 -1.3095257649926234e+02 0 0 0
2938 84 2 0.0000000000000000e+00 -1.5912026949061584e+02 3.6657922572646754e+01 -1.2173671541255398e+02 0 0 0
3734 107 4 0.0000000000000000e+00 -1.2795312582398650e+02 3.4158548155746033e+01 -1.3065762456478996e+02 0 0 0
490 14 2 0.0000000000000000e+00 -1.2271533971564159e+02 4.3430361132532809e+01 -1.2862984269406019e+02 0 0 0
6540 187 4 0.0000000000000000e+00 -9.9579066389886037e+01 3.6629940284430177e+01 -1.2809795007252126e+02 0 0 0
2491 72 2 0.0000000000000000e+00 -7.9283293971312901e+01 4.3704598231074229e+01 -1.2820042251959484e+02 0 0 0
3200 92 2 0.0000000000000000e+00 -6.1134549467155729e+01 3.1849798772083165e+01 -1.2425735577549335e+02 0 0 0
3202 92 2 0.0000000000000000e+00 -4.6062769679330700e+01 3.5588857542152510e+01 -1.3369430500945245e+02 0 0 0
3201 92 2 0.0000000000000000e+00 -5.1831309258178550e+01 3.5227445884442382e+01 -1.2536161966537966e+02 0 0 0
1716 50 2 0.0000000000000000e+00 -4.5366162240361689e+01 4.3280497594290416e+01 -1.2633204990400836e+02 0 0 0
3391 97 2 0.0000000000000000e+00 -3.4196013524987244e+01 3.2005933960302265e+01 -1.3359493325846756e+02 0 0 0
3390 97 2 0.0000000000000000e+00 -3.6218618671123622e+01 4.1473826335081867e+01 -1.3152489812199369e+02 0 0 0
2817 81 2 0.0000000000000000e+00 -4.3876501276270432e+01 -7.3042314408223803e+01 -1.1454424693990875e+02 0 0 0
6253 179 4 0.0000000000000000e+00 -8.4578047691408742e+01 -5.2423237150687264e+01 -1.1054638401883983e+02 0 0 0
6251 179 4 0.0000000000000000e+00 -6.7207009068736141e+01 -5.8188924084080135e+01 -1.0939145689192036e+02 0 0 0
6250 179 4 0.0000000000000000e+00 -5.7526093558335859e+01 -5.6592014511265951e+01 -1.0755807672162200e+02 0 0 0
2344 67 2 0.0000000000000000e+00 -5.1092648917003402e+01 -5.7105924646340107e+01 -1.1700953932073270e+02 0 0 0
2814 81 2 0.0000000000000000e+00 -2.9668096890361838e+01 -5.8996618745441317e+01 -1.2025187213422893e+02 0 0 0
2343 67 2 0.0000000000000000e+00 -4.1682768567370779e+01 -5.5604154368916625e+01 -1.1452027512222919e+02 0 0 0
2342 67 1 0.0000000000000000e+00 -3.4840324228096584e+01 -5.2069779270056209e+01 -1.0814400745102883e+02 0 0 0
2835 81 2 0.0000000000000000e+00 -8.8381066707419350e+01 -4.2811043124604900e+01 -1.1359535075987115e+02 0 0 0
6254 179 4 0.0000000000000000e+00 -7.7721002071462536e+01 -4.5222414703791330e+01 -1.1067949277927553e+02 0 0 0
6255 179 3 0.0000000000000000e+00 -6.7064985081982769e+01 -4.4137968303573565e+01 -1.1026719833520497e+02 0 0 0
2092 60 2 0.0000000000000000e+00 -5.0291515047238356e+01 -4.5871951722127896e+01 -1.0808306864256642e+02 0 0 0
2528 73 2 0.0000000000000000e+00 -1.0523296697598822e+02 -3.3979606431912813e+01 -1.0815535947225801e+02 0 0 0
2529 73 2 0.0000000000000000e+00 -1.0557849676217647e+02 -2.5429174634473757e+01 -1.1411792871475643e+02 0 0 0
212 7 2 0.0000000000000000e+00 -8.6828219747615293e+01 -2.4628049903207277e+01 -1.1786529760548298e+02 0 0 0
213 7 2 0.0000000000000000e+00 -8.7590222771569231e+01 -3.2212266437266457e+01 -1.1075541520992988e+02 0 0 0
1539 44 2 0.0000000000000000e+00 -9.5509609684734144e+01 -2.4427647988537274e+01 -1.1036769132932480e+02 0 0 0
2834 81 2 0.0000000000000000e+00 -8.0940705301063048e+01 -3.6884854207713168e+01 -1.1583020135540718e+02 0 0 0
2833 81 2 0.0000000000000000e+00 -7.7714045883567948e+01 -2.8717834908800359e+01 -1.2027007627860716e+02 0 0 0
2832 81 1 0.0000000000000000e+00 -7.1858168910236245e+01 -3.1980273382610875e+01 -1.1193758333610282e+02 0 0 0
6257 179 4 0.0000000000000000e+00 -5.7908449602040044e+01 -2.6422838927227325e+01 -1.1324823193884512e+02 0 0 0
6256 179 4 0.0000000000000000e+00 -6.1594539742571428e+01 -3.5063133169668617e+01 -1.0878291403458951e+02 0 0 0
1617 47 2 0.0000000000000000e+00 -5.0624180323174016e+01 -2.9966282373979599e+01 -1.0741528990364183e+02 0 0 0
1618 47 2 0.0000000000000000e+00 -4.0845328244730467e+01 -2.9660738791381132e+01 -1.1014835484780201e+02 0 0 0
1619 47 2 0.0000000000000000e+00 -3.6973182936824500e+01 -2.4647712061113534e+01 -1.1875162300043260e+02 0 0 0
2531 73 1 0.0000000000000000e+00 -1.1499225665244171e+02 -1.5941650490425792e+01 -1.1489961301541028e+02 0 0 0
2530 73 2 0.0000000000000000e+00 -1.0662232909216580e+02 -1.7536151356617960e+01 -1.1967533589824515e+02 0 0 0
6526 187 4 0.0000000000000000e+00 -9.7864124140303474e+01 -1.0628087828838872e+01 -1.1138960114068446e+02 0 0 0
211 7 2 0.0000000000000000e+00 -8.9704421743534496e+01 -1.5635848440432428e+01 -1.2030150688505653e+02 0 0 0
6529 187 4 0.0000000000000000e+00 -7.5241245547200336e+01 -1.8267025093165746e+01 -1.1366335142663054e+02 0 0 0
6258 179 4 0.0000000000000000e+00 -5.9135885633663804e+01 -1.6690351266416720e+01 -1.1451450466301381e+02 0 0 0
2081 60 2 0.0000000000000000e+00 -4.1621982380794151e+01 -1.5768735681818494e+01 -1.1622070506742996e+02 0 0 0
6324 181 4 0.0000000000000000e+00 -2.9978677359684614e+01 -1.4055001522803931e+01 -1.0729307724145409e+02 0 0 0
2532 73 2 0.0000000000000000e+00 -1.1617319026338910e+02 -7.3178732128938604e+00 -1.1909668909382540e+02 0 0 0
5548 159 3 0.0000000000000000e+00 -1.1855284584537495e+02 -7.6632555643747597e+00 -1.0796646583078520e+02 0 0 0
6525 187 4 0.0000000000000000e+00 -1.0021842852269288e+02 -9.9702156773817769e+00 -1.2034327955122610e+02 0 0 0
6261 179 4 0.0000000000000000e+00 -8.0076078198670302e+01 2.0888889014683434e+00 -1.0844460508136632e+02 0 0 0
6260 179 4 0.0000000000000000e+00 -7.2392944722355509e+01 -4.4740112020912326e+00 -1.0843577621593356e+02 0 0 0
6259 179 4 0.0000000000000000e+00 -6.3273180436188987e+01 -8.9170372003406886e+00 -1.0965935653262693e+02 0 0 0
5124 147 4 0.0000000000000000e+00 -5.5733828135617877e+01 -4.2073107427893452e+00 -1.1997667330467648e+02 0 0 0
5125 147 4 0.0000000000000000e+00 -4.8070242016647811e+01 -5.7996057906086955e+00 -1.1372486447556969e+02 0 0 0
5126 147 4 0.0000000000000000e+00 -3.8474448655802867e+01 -3.1659773432066269e+00 -1.1369905839348529e+02 0 0 0
6297 180 3 0.0000000000000000e+00 -1.5342555101520202e+02 1.4870964944910217e+01 -1.1286066022367471e+02 0 0 0
6298 180 4 0.0000000000000000e+00 -1.4788070107464100e+02 9.4889399186441423e+00 -1.1973891033407888e+02 0 0 0
2549 73 2 0.0000000000000000e+00 -1.2188369898489887e+02 1.6419546201803520e+01 -1.1526230189502303e+02 0 0 0
2550 73 2 0.0000000000000000e+00 -1.1232784784455009e+02 1.3500679789398800e+01 -1.1625539997189848e+02 0 0 0
2551 73 2 0.0000000000000000e+00 -1.0421473501967444e+02 8.4491442324522090e+00 -1.1814380152507789e+02 0 0 0
2552 73 1 0.0000000000000000e+00 -1.0248989674465919e+02 9.6994511651701174e+00 -1.0892335017183723e+02 0 0 0
6263 179 4 0.0000000000000000e+00 -9.4003395710039726e+01 1.1811371884206839e+01 -1.1689613119914431e+02 0 0 0
6262 179 3 0.0000000000000000e+00 -8.6292919776211860e+01 6.2974871864082340e+00 -1.1525382192112330e+02 0 0 0
5121 147 3 0.0000000000000000e+00 -7.2441156065949869e+01 1.2412413539418424e+01 -1.1280263445728458e+02 0 0 0
5122 147 4 0.0000000000000000e+00 -6.6121064885478859e+01 7.1955792415746700e+00 -1.1926423614305259e+02 0 0 0
805 23 2 0.0000000000000000e+00 -4.6162375707205534e+01 3.8324810015108537e+00 -1.0994411112187959e+02 0 0 0
5127 147 4 0.0000000000000000e+00 -3.2372478141731015e+01 4.6740939148423637e+00 -1.1267059449068383e+02 0 0 0
5128 147 3 0.0000000000000000e+00 -3.8734694293128037e+01 1.2080038768563799e+01 -1.1135669469120435e+02 0 0 0
1740 50 1 0.0000000000000000e+00 -1.5439203547536496e+02 2.3581944292144836e+01 -1.1971163701884390e+02 0 0 0
1741 50 2 0.0000000000000000e+00 -1.5778754640186870e+02 3.0387077385434058e+01 -1.1319305733211701e+02 0 0 0
3732 107 4 0.0000000000000000e+00 -1.2457493266179097e+02 2.4941179625523517e+01 -1.1365315507555819e+02 0 0 0
2929 84 2 0.0000000000000000e+00 -1.0380605687197355e+02 2.7128839370019961e+01 -1.1401128287763852e+02 0 0 0
2928 84 2 0.0000000000000000e+00 -9.4014657550470019e+01 2.5793350244566135e+01 -1.1592304412995321e+02 0 0 0
5119 147 4 0.0000000000000000e+00 -8.4580820615981267e+01 2.6104971826436252e+01 -1.0728401644880461e+02 0 0 0
5120 147 4 0.0000000000000000e+00 -7.9187602066776108e+01 1.9352489138810054e+01 -1.1153770015980247e+02 0 0 0
2489 72 1 0.0000000000000000e+00 -7.7011606784026839e+01 2.8848763670684807e+01 -1.1713655839063441e+02 0 0 0
2488 72 2 0.0000000000000000e+00 -6.8407854308908199e+01 2.3297201117726964e+01 -1.1648940287166158e+02 0 0 0
1638 47 2 0.0000000000000000e+00 -5.2508565819459854e+01 1.7697273341807595e+01 -1.1772857705074793e+02 0 0 0
1639 47 2 0.0000000000000000e+00 -4.5902390125353747e+01 2.4107613199271327e+01 -1.1344281998226559e+02 0 0 0
1640 47 2 0.0000000000000000e+00 -3.6731238961496473e+01 2.6854173841713045e+01 -1.0981680040575806e+02 0 0 0
6499 186 4 0.0000000000000000e+00 -1.3844184428283464e+02 4.0933608409516189e+01 -1.1050307365436241e+02 0 0 0
1738 50 2 0.0000000000000000e+00 -1.3551560194577186e+02 3.0544016734883730e+01 -1.2048821921798401e+02 0 0 0
1737 50 2 0.0000000000000000e+00 -1.2778711230423251e+02 3.5660609492001370e+01 -1.1660970476770224e+02 0 0 0
1736 50 2 0.0000000000000000e+00 -1.1893296746238387e+02 3.8244637084507296e+01 -1.2033890989285158e+02 0 0 0
2930 84 1 0.0000000000000000e+00 -1.1012008902787041e+02 3.4970502408255904e+01 -1.1254113551258467e+02 0 0 0
6541 187 4 0.0000000000000000e+00 -1.0126490701448679e+02 3.6232179073682943e+01 -1.1810845864188045e+02 0 0 0
6542 187 3 0.0000000000000000e+00 -1.0021889007366714e+02 3.6496483042941698e+01 -1.0815597044996885e+02 0 0 0
2927 84 2 0.0000000000000000e+00 -8.7244087644301004e+01 3.1994225950512440e+01 -1.1986063471987210e+02 0 0 0
2926 84 2 0.0000000000000000e+00 -8.9295487861975374e+01 4.2163436996338277e+01 -1.2008201025812559e+02 0 0 0
5118 147 4 0.0000000000000000e+00 -9.0590274877285935e+01 3.3743993072248983e+01 -1.0809002924265754e+02 0 0 0
2490 72 2 0.0000000000000000e+00 -7.8171168187260292e+01 3.7966551674674470e+01 -1.1959646422152946e+02 0 0 0
5912 169 3 0.0000000000000000e+00 -7.4084366934087626e+01 3.6096207658959592e+01 -1.0926652479810831e+02 0 0 0
5141 147 4 0.0000000000000000e+00 -5.8040483421805661e+01 4.2824706717192328e+01 -1.1315326894875615e+02 0 0 0
3199 92 2 0.0000000000000000e+00 -6.6368494574000650e+01 3.9649501188472762e+01 -1.1920441653625706e+02 0 0 0
5140 147 4 0.0000000000000000e+00 -5.1150135287627570e+01 3.5678375625652706e+01 -1.1429257618021127e+02 0 0 0
5139 147 4 0.0000000000000000e+00 -4.2960310919050215e+01 3.5719265529121969e+01 -1.0860595020490652e+02 0 0 0
5347 153 4 0.0000000000000000e+00 -4.0334299744427057e+01 3.4845445774648333e+01 -1.2019038963815336e+02 0 0 0
4200 120 4 0.0000000000000000e+00 -4.6480110950766210e+01 -8.3432775333649801e+01 -1.0242361096046913e+02 0 0 0
4199 120 4 0.0000000000000000e+00 -4.3168208389076632e+01 -7.6683751488294419e+01 -9.5490739425070188e+01 0 0 0
6248 179 3 0.0000000000000000e+00 -5.3412988511438726e+01 -7.2882135842121286e+01 -1.0137803848690430e+02 0 0 0
4726 136 4 0.0000000000000000e+00 -4.5081968081666872e+01 -6.5821242418843127e+01 -9.4525200719436128e+01 0 0 0
2818 81 1 0.0000000000000000e+00 -4.2952385482755162e+01 -7.1742157669803859e+01 -1.0515552177983405e+02 0 0 0
2819 81 2 0.0000000000000000e+00 -3.4511302389061882e+01 -7.1539377843054652e+01 -9.8759285899300565e+01 0 0 0
6252 179 4 0.0000000000000000e+00 -7.6454407303416659e+01 -5.6192769904734170e+01 -1.0652218232951370e+02 0 0 0
6237 179 4 0.0000000000000000e+00 -6.5403892573427811e+01 -5.6305057514533523e+01 -1.0016388583412854e+02 0 0 0
6236 179 4 0.0000000000000000e+00 -5.6279011314220320e+01 -5.6144003625504602e+01 -9.5009559368389858e+01 0 0 0
6249 179 4 0.0000000000000000e+00 -5.1698090444558929e+01 -6.4413704740219458e+01 -1.0429155927697822e+02 0 0 0
6235 179 4 0.0000000000000000e+00 -4.7015506874467448e+01 -5.5888852403559945e+01 -9.9917155081579594e+01 0 0 0
6234 179 3 0.0000000000000000e+00 -3.7812524619752892e+01 -5.7688782461964621e+01 -9.9039223660205323e+01 0 0 0
6233 179 4 0.0000000000000000e+00 -2.9766166414990174e+01 -6.2074586310839045e+01 -9.5462344477141173e+01 0 0 0
5544 159 4 0.0000000000000000e+00 -1.1090176123835531e+02 -3.9568696235286183e+01 -9.5148343122097700e+01 0 0 0
5556 159 4 0.0000000000000000e+00 -9.5012115084629755e+01 -3.8272604168404357e+01 -1.0126662399485386e+02 0 0 0
214 7 1 0.0000000000000000e+00 -8.4341289015533278e+01 -3.8709672370096932e+01 -1.0370868049876027e+02 0 0 0
215 7 2 0.0000000000000000e+00 -8.3034615505404815e+01 -4.7231916200778855e+01 -9.9297601338441893e+01 0 0 0
5555 159 3 0.0000000000000000e+00 -8.9092363797683419e+01 -4.0919542367698668e+01 -9.4074158503158287e+01 0 0 0
2090 60 1 0.0000000000000000e+00 -6.6748233425373186e+01 -4.4104467380186108e+01 -9.9516324425977572e+01 0 0 0
2091 60 2 0.0000000000000000e+00 -5.7853057395762498e+01 -4.7744604517922468e+01 -1.0222159104043959e+02 0 0 0
2094 60 2 0.0000000000000000e+00 -3.2043348989708349e+01 -3.9457248080786194e+01 -1.0596716289813850e+02 0 0 0
2093 60 2 0.0000000000000000e+00 -4.1543627583962433e+01 -4.1073426959384328e+01 -1.0689457058249543e+02 0 0 0
4729 136 3 0.0000000000000000e+00 -3.4599633906508515e+01 -4.4887401820382834e+01 -9.6310657907301476e+01 0 0 0
2526 73 2 0.0000000000000000e+00 -1.2310796447392248e+02 -3.4235359487030813e+01 -9.7472067037294764e+01 0 0 0
2527 73 2 0.0000000000000000e+00 -1.1434317716506807e+02 -3.4516321374344145e+01 -1.0355796790711989e+02 0 0 0
5546 159 4 0.0000000000000000e+00 -1.1458347707815176e+02 -2.4657349032647282e+01 -1.0254586409974024e+02 0 0 0
5545 159 4 0.0000000000000000e+00 -1.0867769307087242e+02 -3.0085868665342570e+01 -9.6322086096788141e+01 0 0 0
5557 159 4 0.0000000000000000e+00 -9.6073563500032506e+01 -2.9063721986895946e+01 -9.8262746778309321e+01 0 0 0
2831 81 2 0.0000000000000000e+00 -6.8618649671838682e+01 -2.9844741865214456e+01 -1.0267492964706193e+02 0 0 0
2830 81 2 0.0000000000000000e+00 -6.1598562620882255e+01 -3.1354408855681168e+01 -9.5582114490829966e+01 0 0 0
1616 47 2 0.0000000000000000e+00 -5.3251231973844980e+01 -3.6207481068955261e+01 -1.0073100244387342e+02 0 0 0
5267 151 4 0.0000000000000000e+00 -3.3199502872464969e+01 -2.9899815707594907e+01 -9.6794409042319074e+01 0 0 0
5547 159 4 0.0000000000000000e+00 -1.1930200579967122e+02 -1.7053611953069865e+01 -1.0442421051336630e+02 0 0 0
1540 44 2 0.0000000000000000e+00 -1.0285129775045006e+02 -1.9572756834278039e+01 -1.0583002971385939e+02 0 0 0
1538 44 2 0.0000000000000000e+00 -8.6081605772534303e+01 -2.2968908390919847e+01 -1.0608960840136184e+02 0 0 0
6528 187 3 0.0000000000000000e+00 -7.9977747970622246e+01 -1.2507897933984536e+01 -1.0700336126323310e+02 0 0 0
1537 44 1 0.0000000000000000e+00 -8.2496783693660518e+01 -1.8777972773112285e+01 -9.7886646379609829e+01 0 0 0
5329 153 4 0.0000000000000000e+00 -7.2300726033951307e+01 -1.5495284342128063e+01 -9.6858062372438965e+01 0 0 0
2083 60 1 0.0000000000000000e+00 -4.2836009119192248e+01 -2.2540604195351030e+01 -9.7909739898752505e+01 0 0 0
5268 151 3 0.0000000000000000e+00 -3.2723723898997612e+01 -2.0629101079718879e+01 -1.0020561091349721e+02 0 0 0
2082 60 2 0.0000000000000000e+00 -4.2393851882309313e+01 -1.9072585329137002e+01 -1.0681546562987894e+02 0 0 0
5269 151 4 0.0000000000000000e+00 -3.2783144584753252e+01 -1.1849579514374735e+01 -9.5575479458141118e+01 0 0 0
5549 159 4 0.0000000000000000e+00 -1.1431151153869818e+02 1.3753275079134637e+00 -1.0649530453718285e+02 0 0 0
5550 159 4 0.0000000000000000e+00 -1.0560220778830231e+02 -2.5084052407361206e+00 -1.0446117631139700e+02 0 0 0
5551 159 4 0.0000000000000000e+00 -9.8659204930212439e+01 -7.0648872765504205e+00 -9.9736940235414906e+01 0 0 0
6527 187 4 0.0000000000000000e+00 -8.8708438633820009e+01 -8.1377936594884126e+00 -1.0657705589604038e+02 0 0 0
3726 107 4 0.0000000000000000e+00 -9.4647022772026830e+01 2.5533811784671907e+00 -9.6333803230911812e+01 0 0 0
803 23 2 0.0000000000000000e+00 -6.3940077245754154e+01 2.9779590132148481e+00 -1.0393468591585994e+02 0 0 0
5331 153 3 0.0000000000000000e+00 -5.7545441345108642e+01 -7.2150229686943685e+00 -9.5045722362170594e+01 0 0 0
804 23 2 0.0000000000000000e+00 -5.4620274888443980e+01 1.4310036074487387e-01 -1.0650959879944763e+02 0 0 0
5332 153 4 0.0000000000000000e+00 -5.4165592579210553e+01 1.2526094348977652e+00 -9.6124219360653612e+01 0 0 0
5270 151 4 0.0000000000000000e+00 -3.7422566473301679e+01 -2.6428573129387800e+00 -9.7974960997666201e+01 0 0 0
6323 181 4 0.0000000000000000e+00 -3.0406036749162254e+01 -4.2038859376368531e+00 -1.0483044758895809e+02 0 0 0
6496 186 4 0.0000000000000000e+00 -1.3084430702760002e+02 1.6179277097566793e+01 -9.7889633525960278e+01 0 0 0
6495 186 4 0.0000000000000000e+00 -1.2245675293287459e+02 1.3200964048856230e+01 -9.3723596205976477e+01 0 0 0
2553 73 2 0.0000000000000000e+00 -1.0326638924580327e+02 1.3421066618523886e+01 -9.9159725351533936e+01 0 0 0
3728 107 3 0.0000000000000000e+00 -9.3737891501621903e+01 1.4941127067592088e+01 -1.0404324042778971e+02 0 0 0
3727 107 4 0.0000000000000000e+00 -9.3612875190120278e+01 5.3450635549924259e+00 -1.0610551137900949e+02 0 0 0
801 23 2 0.0000000000000000e+00 -7.9202607023133780e+01 9.9108321132308408e+00 -9.5215878137218638e+01 0 0 0
802 23 1 0.0000000000000000e+00 -7.1242709407245727e+01 9.1357076118860743e+00 -1.0158792839103170e+02 0 0 0
5129 147 4 0.0000000000000000e+00 -4.6686167634137135e+01 1.5648309091122609e+01 -1.0619535986551952e+02 0 0 0
5333 153 4 0.0000000000000000e+00 -5.2393338425956095e+01 1.1211795079155005e+01 -9.6997800692808568e+01 0 0 0
5271 151 4 0.0000000000000000e+00 -4.0322216626699507e+01 5.5420429344340594e+00 -9.4017363160794631e+01 0 0 0
6322 181 4 0.0000000000000000e+00 -2.9138673710393281e+01 3.6906654152002623e+00 -9.9961758951004569e+01 0 0 0
6296 180 4 0.0000000000000000e+00 -1.5126893702562305e+02 2.1286408209914448e+01 -1.0616306483496392e+02 0 0 0
6295 180 4 0.0000000000000000e+00 -1.4560509829860393e+02 2.7846236276475807e+01 -1.0111765986223915e+02 0 0 0
6497 186 4 0.0000000000000000e+00 -1.3578713621947790e+02 2.2229685912893782e+01 -1.0416764519094832e+02 0 0 0
3731 107 4 0.0000000000000000e+00 -1.1944657607075531e+02 2.3739401397969957e+01 -1.0545839603166272e+02 0 0 0
4761 137 4 0.0000000000000000e+00 -1.1819965133082275e+02 2.8610202446257855e+01 -9.4201430483728700e+01 0 0 0
3730 107 4 0.0000000000000000e+00 -1.0969670724255231e+02 2.6263163321207504e+01 -1.0426118122922837e+02 0 0 0
3729 107 4 0.0000000000000000e+00 -1.0095374825472338e+02 2.1455214374492645e+01 -1.0593447171808555e+02 0 0 0
6544 187 4 0.0000000000000000e+00 -9.4371913542208560e+01 2.4764752348748203e+01 -9.8759202557598442e+01 0 0 0
6545 187 4 0.0000000000000000e+00 -8.4493044182251282e+01 2.1146280702875657e+01 -9.8842508284595908e+01 0 0 0
5913 169 4 0.0000000000000000e+00 -7.4428520966350845e+01 2.8670940820731069e+01 -1.0281748240270676e+02 0 0 0
5914 169 4 0.0000000000000000e+00 -6.8339738876146114e+01 2.0719942087323624e+01 -1.0242310271603084e+02 0 0 0
5915 169 4 0.0000000000000000e+00 -5.8641715915887183e+01 1.9398944385428329e+01 -1.0366669619003650e+02 0 0 0
2208 64 2 0.0000000000000000e+00 -6.3257821608194085e+01 2.3118943603166759e+01 -9.4875642074161803e+01 0 0 0