LAMMPS (5 Jun 2019)
Reading restart file ...
  restart file = 5 Jun 2019, LAMMPS = 5 Jun 2019
  restoring atom style full from restart
  orthogonal box = (-500 -500 -500) to (500 500 500)
  1 by 2 by 7 MPI processor grid
  restoring pair style lj/cut from restart
  restoring bond style hybrid from restart
  restoring angle style cosine from restart
  7000 atoms
  7283 bonds
  6600 angles
Finding 1-2 1-3 1-4 neighbors ...
  special bond factors lj:   0          1          1         
  special bond factors coul: 0          0          0         
  3 = max # of 1-2 neighbors
  4 = max # of 1-3 neighbors
  8 = max # of 1-4 neighbors
  16 = max # of special neighbors
  special bonds CPU = 0.0162662 secs
  read_restart CPU = 0.275893 secs
Changing box ...
  orthogonal box = (-500 -500 -500) to (500 500 500)
  orthogonal box = (-500 -500 -500) to (500 500 500)
  orthogonal box = (-500 -500 -500) to (500 500 500)
Finding 1-2 1-3 1-4 neighbors ...
  special bond factors lj:   0          1          1         
  special bond factors coul: 0          0          0         
  3 = max # of 1-2 neighbors
  4 = max # of 1-3 neighbors
  8 = max # of 1-4 neighbors
  17064 = # of 1-3 neighbors before angle trim
  13200 = # of 1-3 neighbors after angle trim
  16 = max # of special neighbors
  special bonds CPU = 0.00142414 secs
1000 atoms in group rxnSites
Neighbor list info ...
  update every 1 steps, delay 1 steps, check yes
  max neighbors/atom: 2000, page size: 100000
  master list distance cutoff = 26.9
  ghost atom cutoff = 26.9
  binsize = 13.45, bins = 75 75 75
  2 neighbor lists, perpetual/occasional/extra = 1 1 0
  (1) pair lj/cut, perpetual
      attributes: half, newton on
      pair build: half/bin/newton
      stencil: half/bin/3d/newton
      bin: standard
  (2) fix bond/create/random, occasional, copy from (1)
      attributes: half, newton on
      pair build: copy
      stencil: none
      bin: none
Setting up Verlet run ...
  Unit style    : real
  Current step  : 400000000
  Time step     : 30
Per MPI rank memory allocation (min/avg/max) = 10.32 | 10.75 | 11.78 Mbytes
Step E_pair PotEng KinEng E_bond E_angle Temp Bonds 
400000000   -4811.3255   -1250.4799    6427.2076   -619.69659    4180.5422    308.07186     7283 
401000000   -4854.9796   -1290.3185    6440.0941   -577.53235    4142.1935    308.68954     7280 
402000000   -4782.9818   -1262.1564    6525.8683   -560.12611    4080.9515    312.80091     7278 
403000000   -4906.8598   -1349.4573    6429.4747   -620.19469    4177.5972    308.18053     7286 
404000000   -4854.5165   -1242.7501    6448.3799   -581.00945    4192.7759     309.0867     7279 
405000000   -4837.8784   -1278.0271     6377.873   -588.94571     4148.797    305.70713     7278 
406000000   -4810.1095   -1352.0307    6501.8315   -637.05996    4095.1387    311.64877     7285 
407000000   -4900.0234   -1424.4884    6478.9205   -661.21602     4136.751    310.55059     7280 
408000000   -4822.4157   -1336.6665     6417.239   -655.99957    4141.7488    307.59404     7284 
409000000   -4964.7021   -1571.2957    6522.8993   -688.96627    4082.3726     312.6586     7286 
410000000   -5005.3545   -1423.6619    6334.4599   -554.87621    4136.5689    303.62624     7280 
411000000   -4921.1052   -1262.8623    6368.5344   -551.67009     4209.913    305.25951     7286 
412000000   -4896.0284   -1381.0084    6556.0632   -631.15365    4146.1737    314.24823     7289 
413000000   -4959.2542   -1462.9522    6470.0592   -568.77623    4065.0783    310.12584     7287 
414000000   -4998.4679   -1458.2212    6500.9561    -597.4556    4137.7023    311.60681     7287 
415000000    -4874.803   -1371.0528    6427.0361   -625.81132    4129.5615    308.06364     7286 
416000000   -5013.2508   -1491.8871    6531.4385   -605.72557    4127.0893     313.0679     7287 
417000000   -5000.8528   -1462.5608    6530.1187   -645.53353    4183.8255    313.00464     7286 
418000000   -5092.1212   -1620.1433    6450.2347   -656.21189    4128.1898     309.1756     7284 
419000000    -4904.855   -1369.5935    6431.7861   -629.28001    4164.5415    308.29132     7282 
420000000   -4903.4908   -1330.2909    6421.8549   -554.90338    4128.1033     307.8153     7284 
421000000   -4900.7695   -1307.6511    6424.7145    -605.5212    4198.6396    307.95236     7283 
422000000   -4819.6213   -1311.0027    6478.1225    -630.0006    4138.6192    310.51234     7287 
423000000    -4934.503   -1361.4349    6505.0097   -608.17688    4181.2449    311.80111     7282 
424000000   -4979.8119   -1384.4974    6473.4271   -552.76464    4148.0792    310.28728     7282 
425000000   -5017.0588   -1428.8489    6546.9745   -556.68016    4144.8901    313.81258     7283 
426000000   -4952.1054   -1317.1019    6406.1703   -563.21204    4198.2155    307.06349     7275 
427000000   -4939.7676   -1396.3728    6497.6517   -582.04598    4125.4408    311.44842     7282 
428000000   -5001.8648   -1408.0294    6397.1077   -559.06868    4152.9041     306.6291     7284 
429000000   -4833.5833   -1397.4084    6489.9653   -623.13126    4059.3062    311.07999     7283 
430000000   -4894.3818   -1300.0814    6476.9327   -556.90132    4151.2017    310.45531     7283 
431000000   -4927.3388   -1494.8997    6532.7289   -691.38946    4123.8286    313.12976     7284 
432000000   -4810.0835   -1227.4562    6425.4489   -554.17593    4136.8032    307.98756     7286 
433000000   -4920.8312   -1377.0974    6436.5747   -587.99279    4131.7266    308.52085     7287 
434000000   -5008.1053   -1412.1362    6391.3858   -629.62033    4225.5894    306.35483     7287 
435000000   -4886.1206   -1372.0549    6420.3185    -637.3902    4151.4558    307.74165     7284 
436000000   -4925.0426   -1315.7947    6538.9938   -588.07907     4197.327    313.43005     7285 
437000000   -4996.2887   -1490.2814    6517.7411    -648.5777     4154.585    312.41136     7284 
438000000   -4939.6079   -1424.6154    6401.8119   -636.46898    4151.4615    306.85458     7283 
439000000   -5027.6966   -1445.7221    6476.1397   -584.24648    4166.2209     310.4173     7278 
440000000   -4822.3513   -1246.7216    6364.1691   -566.18138    4141.8111    305.05027     7280 
441000000   -4944.6673   -1448.1343    6432.3177   -599.03305     4095.566     308.3168     7278 
442000000   -4818.3779   -1219.3209    6484.2253   -518.40644    4117.4635    310.80486     7276 
443000000   -4973.3255    -1381.508    6459.0048    -585.3738    4177.1913    309.59598     7278 
444000000    -4855.371    -1349.508    6485.0016   -582.91244    4088.7755    310.84207     7277 
445000000   -4954.4627   -1418.9971    6370.9975   -578.28149     4113.747    305.37757     7278 
446000000   -4888.6449   -1368.0054    6405.8316   -586.50988    4107.1494    307.04726     7277 
447000000   -4924.7653   -1294.5147     6490.104   -487.13699    4117.3876    311.08664     7278 
448000000   -4959.3067   -1429.6188    6385.7795   -608.00571    4137.6937    306.08611     7279 
449000000   -5044.5159   -1520.5165    6538.9053   -603.65533    4127.6547    313.42581     7277 
450000000   -4973.9806   -1442.3732    6408.7989   -602.51582    4134.1232    307.18949     7278 
451000000   -4906.7501   -1420.1819    6489.4248   -647.99038    4134.5586    311.05409     7280 
452000000   -4934.6736   -1440.6534      6366.73   -640.27207    4134.2922    305.17302     7282 
453000000   -4915.4558   -1332.9968     6624.667   -503.65017    4086.1091    317.53657     7277 
454000000   -4941.6746   -1490.6865    6453.7498   -645.45881    4096.4469    309.34409     7276 
455000000   -4870.7129   -1321.1229     6419.142   -594.66008    4144.2501    307.68526     7277 
456000000   -4906.5805   -1312.1547    6429.6319   -602.50634    4196.9321    308.18807     7282 
457000000   -4920.3585   -1343.0579     6494.484   -608.20831    4185.5089    311.29659     7280 
458000000   -5023.5574   -1500.5282    6367.9953   -609.97192    4133.0011    305.23367     7284 
459000000   -4923.5677   -1392.0214    6403.3901   -646.13292    4177.6791    306.93023     7280 
460000000   -4973.1829   -1448.5027    6420.8514   -611.12237    4135.8026    307.76719     7281 
461000000   -4992.8768   -1425.9114    6334.6489    -553.1796     4120.145    303.63529     7281 
462000000   -5022.3889   -1486.2691    6550.5286   -585.11594    4121.2357    313.98294     7281 
463000000   -4994.7248   -1441.1767    6399.0653   -572.64609    4126.1942    306.72293     7279 
464000000   -5078.9731   -1530.2796     6531.966   -577.27465    4125.9682    313.09319     7285 
465000000   -4917.6122   -1348.9915    6527.1701   -548.59764    4117.2184    312.86331     7284 
466000000   -5001.5641    -1455.874    6496.8242    -625.7677    4171.4578    311.40876     7282 
467000000   -4974.1333   -1428.0309    6295.8648   -561.06709    4107.1695    301.77628     7277 
468000000   -4970.7363   -1451.1921    6500.7514   -640.76634    4160.3106      311.597     7286 
469000000    -5096.085   -1529.0254    6415.0672   -606.94154    4174.0012    307.48994     7284 
470000000   -4952.6507   -1449.4066    6408.1094   -592.62614    4095.8703    307.15644     7285 
471000000   -4981.1155   -1429.8393    6528.9458   -606.04182     4157.318    312.94842     7282 
472000000   -4915.1814     -1321.06    6516.4073   -558.86084    4152.9823    312.34742     7281 
473000000   -5043.1428   -1498.6477    6408.7977   -589.97378    4134.4689    307.18943     7282 
474000000   -5031.4033   -1499.5288    6470.7225   -615.21473    4147.0893    310.15764     7280 
475000000   -4918.9248   -1435.4543     6413.338   -599.59436    4083.0649    307.40706     7282 
476000000   -4965.0943   -1321.1762    6401.8595   -589.16532    4233.0834    306.85686     7279 
477000000   -4992.1695   -1394.6812    6457.1399   -598.96034    4196.4486    309.50659     7276 
478000000   -4933.3963   -1269.4636      6521.19   -487.43288    4151.3656    312.57667     7276 
479000000   -4899.3386   -1303.0775    6428.9505   -593.40898    4189.6701     308.1554     7275 
480000000   -4859.0174   -1282.7509    6516.4078   -538.42878    4114.6953    312.34745     7276 
481000000   -4866.2403   -1315.9661    6477.8825   -566.19568    4116.4698    310.50083     7277 
482000000   -4756.7896   -1189.5395    6536.9505   -601.07465    4168.3248    313.33211     7278 
483000000   -4914.8835   -1449.3917    6345.2299   -605.97999    4071.4718    304.14247     7281 
484000000   -4834.8977   -1234.4942      6453.24   -516.11729    4116.5207    309.31966     7279 
485000000   -4833.4016   -1294.8806    6416.3121   -616.58707     4155.108    307.54961     7280 
486000000   -5004.3231   -1423.3395     6445.174   -644.88588    4225.8695    308.93303     7285 
487000000   -5057.3449   -1681.7784     6354.281   -703.36327    4078.9298    304.57631     7282 
488000000   -4894.8314   -1244.2218    6521.6693   -578.76538    4229.3749    312.59964     7284 
489000000   -4976.2909    -1406.886     6427.451   -584.85671    4154.2616    308.08353     7282 
490000000   -4906.0728    -1386.615    6505.2838   -638.88611    4158.3439    311.81424     7282 
491000000   -5106.1593   -1548.0722     6462.524    -604.4164    4162.5035    309.76467     7281 
492000000   -4978.5711   -1411.7894     6450.063   -618.83812    4185.6198    309.16738     7280 
493000000   -4891.3239   -1462.1547    6540.0882   -649.39366    4078.5629     313.4825     7281 
494000000   -5017.7064   -1462.0792    6422.1413   -550.41005    4106.0372    307.82902     7278 
495000000   -4904.0121   -1386.6891    6576.2635   -580.45342    4097.7765    315.21648     7279 
496000000   -5032.4565   -1487.0688    6414.8049   -571.89555    4117.2832    307.47737     7280 
497000000   -4973.3282   -1474.9982    6535.5005   -601.85658    4100.1865     313.2626     7281 
498000000   -5024.2987   -1403.8806    6444.0578   -590.01502     4210.433    308.87953     7280 
499000000   -5125.0355   -1632.8563    6674.7844   -670.75989    4162.9391    319.93882     7283 
500000000   -4988.1045   -1492.7376    6467.6504    -671.2269    4166.5938    310.01039     7284 
Loop time of 26351.5 on 14 procs for 100000000 steps with 7000 atoms

Performance: 9836.263 ns/day, 0.002 hours/ns, 3794.855 timesteps/s
99.7% CPU use with 14 MPI tasks x no OpenMP threads

MPI task timing breakdown:
Section |  min time  |  avg time  |  max time  |%varavg| %total
---------------------------------------------------------------
Pair    | 5825.6     | 7046.2     | 7910.2     | 705.4 | 26.74
Bond    | 1074.7     | 1113.1     | 1136.1     |  53.2 |  4.22
Neigh   | 4440.1     | 4468       | 4499       |  28.3 | 16.96
Comm    | 6813.2     | 7892.1     | 9659.9     | 893.9 | 29.95
Output  | 0.033743   | 0.034003   | 0.034344   |   0.1 |  0.00
Modify  | 4103.1     | 4186       | 4220.7     |  60.6 | 15.89
Other   |            | 1646       |            |       |  6.25

Nlocal:    500 ave 524 max 473 min
Histogram: 1 0 2 1 2 3 2 1 1 1
Nghost:    819.929 ave 1032 max 621 min
Histogram: 2 1 2 2 1 0 1 1 2 2
Neighs:    9617.5 ave 10846 max 8146 min
Histogram: 2 0 1 1 2 1 2 3 0 2

Total # of neighbors = 134645
Ave neighs/atom = 19.235
Ave special neighs/atom = 7.45486
Neighbor list builds = 6161177
Dangerous builds = 0
System init for write_restart ...
System init for write_data ...
Total wall time: 7:19:12
