LAMMPS (5 Jun 2019)
Reading restart file ...
  restart file = 5 Jun 2019, LAMMPS = 5 Jun 2019
  restoring atom style full from restart
  orthogonal box = (-500 -500 -500) to (500 500 500)
  1 by 2 by 7 MPI processor grid
  restoring pair style lj/cut from restart
  restoring bond style hybrid from restart
  restoring angle style cosine from restart
  7000 atoms
  7283 bonds
  6600 angles
Finding 1-2 1-3 1-4 neighbors ...
  special bond factors lj:   0          1          1         
  special bond factors coul: 0          0          0         
  3 = max # of 1-2 neighbors
  4 = max # of 1-3 neighbors
  8 = max # of 1-4 neighbors
  16 = max # of special neighbors
  special bonds CPU = 0.00151419 secs
  read_restart CPU = 0.0102988 secs
Changing box ...
  orthogonal box = (-500 -500 -500) to (500 500 500)
  orthogonal box = (-500 -500 -500) to (500 500 500)
  orthogonal box = (-500 -500 -500) to (500 500 500)
Finding 1-2 1-3 1-4 neighbors ...
  special bond factors lj:   0          1          1         
  special bond factors coul: 0          0          0         
  3 = max # of 1-2 neighbors
  4 = max # of 1-3 neighbors
  8 = max # of 1-4 neighbors
  17064 = # of 1-3 neighbors before angle trim
  13200 = # of 1-3 neighbors after angle trim
  16 = max # of special neighbors
  special bonds CPU = 0.00133901 secs
1000 atoms in group rxnSites
Neighbor list info ...
  update every 1 steps, delay 1 steps, check yes
  max neighbors/atom: 2000, page size: 100000
  master list distance cutoff = 26.9
  ghost atom cutoff = 26.9
  binsize = 13.45, bins = 75 75 75
  2 neighbor lists, perpetual/occasional/extra = 1 1 0
  (1) pair lj/cut, perpetual
      attributes: half, newton on
      pair build: half/bin/newton
      stencil: half/bin/3d/newton
      bin: standard
  (2) fix bond/create/random, occasional, copy from (1)
      attributes: half, newton on
      pair build: copy
      stencil: none
      bin: none
Setting up Verlet run ...
  Unit style    : real
  Current step  : 400000000
  Time step     : 30
Per MPI rank memory allocation (min/avg/max) = 10.32 | 10.75 | 11.78 Mbytes
Step E_pair PotEng KinEng E_bond E_angle Temp Bonds 
400000000   -4811.3255   -1250.4799    6427.2076   -619.69659    4180.5422    308.07186     7283 
401000000   -4885.2958   -1317.6061    6421.6265   -598.23232     4165.922    307.80435     7279 
402000000   -4851.2381   -1220.0793    6433.0554    -532.0305    4163.1893    308.35216     7278 
403000000   -5017.1502   -1382.3018     6391.471   -598.92079    4233.7691    306.35892     7278 
404000000   -4913.7415   -1383.9658    6462.9416   -598.38398    4128.1597    309.78468     7281 
405000000   -4949.0241    -1317.523    6522.0192      -558.44    4189.9412    312.61641     7280 
406000000   -4997.1931   -1423.2623     6415.905   -578.02631    4151.9571     307.5301     7273 
407000000   -4865.5489   -1303.4966     6483.383   -552.11483    4114.1672    310.76449     7277 
408000000   -4800.2188   -1249.9163    6517.6369   -561.09987    4111.4024    312.40636     7276 
409000000   -4921.8262   -1407.0124    6426.1659   -578.27812    4093.0919    308.02193     7277 
410000000   -4905.7334   -1324.0279    6523.9809   -515.95746     4097.663    312.71044     7276 
411000000   -4902.8782   -1315.0297    6398.5382   -551.50385    4139.3524    306.69767     7276 
412000000   -5003.7931   -1412.1863     6559.984   -566.40756    4158.0143    314.43616     7278 
413000000   -4974.6355   -1424.2451    6582.4485   -623.58431    4173.9747    315.51294     7275 
414000000   -4869.6887   -1325.3987    6530.7641   -586.07215    4130.3621    313.03558     7277 
415000000   -4838.1903   -1290.4536    6427.0047   -596.60279    4144.3395    308.06214     7280 
416000000   -4910.8797   -1306.3984    6408.0864   -593.46743    4197.9488    307.15533     7281 
417000000   -4899.8063   -1336.7808    6379.8465   -633.38343    4196.4089    305.80173     7282 
418000000   -4860.1452   -1331.0923    6590.7845   -658.86486    4187.9177     315.9125     7280 
419000000   -4891.1161   -1347.6225    6584.8408    -615.5345     4159.028    315.62761     7280 
420000000   -4934.8549    -1369.125    6466.2869   -643.02734    4208.7572    309.94503     7282 
421000000   -4951.0157   -1414.3768    6385.4757   -621.58439    4158.2233    306.07155     7283 
422000000   -4800.3058   -1263.2024    6427.9888   -643.19663       4180.3    308.10931     7285 
423000000   -4845.9781   -1279.7896    6386.9962   -591.17314    4157.3616    306.14443     7282 
424000000   -4898.9595   -1262.3714    6421.6226   -582.71242    4219.3005    307.80416     7283 
425000000   -4935.6254    -1343.125    6468.0927   -599.36797    4191.8684    310.03159     7281 
426000000   -4972.2386   -1347.1557    6347.4974   -585.48747    4210.5704    304.25115     7280 
427000000    -4931.917   -1360.7501    6440.9519   -589.14414    4160.3111    308.73066     7282 
428000000   -4908.2525   -1461.0894    6469.2695   -711.56604    4158.7291    310.08799     7284 
429000000    -4920.033   -1291.3254    6389.5259   -606.61658    4235.3242    306.26569     7284 
430000000    -4934.198   -1376.8043     6425.138    -590.3703     4147.764    307.97266     7280 
431000000   -4946.2695   -1367.0851    6541.5253   -605.08699    4184.2714    313.55139     7279 
432000000   -4814.2312    -1257.668    6365.0019   -618.67821    4175.2413    305.09019     7283 
433000000   -4970.7654   -1458.7257    6458.1495   -654.63306    4166.6728    309.55498     7285 
434000000    -4839.467   -1367.4445    6481.9907   -614.14104    4086.1635    310.69775     7283 
435000000   -4998.7822   -1545.5225    6515.9709   -625.52938    4078.7891     312.3265     7285 
436000000   -4911.5168   -1420.0992    6428.1219   -597.39961    4088.8172    308.11569     7282 
437000000   -4797.4277   -1247.3427    6526.2248   -529.77697     4079.862      312.818     7281 
438000000   -4900.8188   -1461.5243    6542.1736   -660.76684    4100.0613    313.58247     7287 
439000000   -4888.3921   -1271.3255    6510.5342   -568.95481    4186.0214    312.06591     7285 
440000000   -4866.0127   -1434.5915    6452.4489   -724.03443    4155.4557    309.28174     7284 
441000000   -4934.1153   -1548.8718    6433.7849   -679.60355    4064.8471    308.38713     7283 
442000000    -4893.715   -1315.0297    6436.9231   -570.27436    4148.9596    308.53755     7283 
443000000    -4797.737   -1285.1822    6539.6514    -612.0619    4124.6167    313.46157     7285 
444000000   -4842.4369   -1286.4699     6542.551   -590.28878    4146.2558    313.60055     7284 
445000000   -4890.0221   -1375.4484     6377.572   -620.63876    4135.2125    305.69271     7285 
446000000   -4919.1317   -1365.8743    6591.9029   -569.16886    4122.4262    315.96611     7286 
447000000    -4929.774   -1384.0653    6438.5548   -595.89099    4141.5997    308.61576     7283 
448000000   -4939.2614   -1398.4184    6542.9713      -623.84    4164.6829     313.6207     7284 
449000000   -4959.9471   -1384.9244    6496.0437   -613.78692    4188.8096    311.37135     7284 
450000000   -4911.7231    -1309.191    6460.7751   -600.25845    4202.7906    309.68083     7285 
451000000   -4970.6764   -1492.1369    6447.0445   -636.72934    4115.2689    309.02269     7284 
452000000   -4950.5281   -1449.2145    6428.3904   -664.98907    4166.3027    308.12855     7283 
453000000   -4936.6721   -1475.2503    6389.4458   -632.49557    4093.9174    306.26185     7281 
454000000   -4963.5745   -1284.4126    6578.2508   -572.78305     4251.945    315.31173     7279 
455000000   -4945.1228   -1313.8613    6523.1184   -548.47324    4179.7347     312.6691     7278 
456000000   -4930.1323   -1353.5006    6428.7325    -616.3662    4192.9979    308.14496     7283 
457000000   -4934.1925   -1325.9389    6409.7289   -595.50549     4203.759    307.23407     7283 
458000000   -4963.0723   -1478.7282    6464.9359   -662.68248    4147.0266    309.88027     7278 
459000000   -4764.7042   -1208.7382    6478.8602   -542.14313    4098.1091     310.5477     7279 
460000000   -4941.9824   -1317.7325    6541.3941   -607.87122    4232.1211     313.5451     7281 
461000000   -4932.9349   -1461.1125    6372.9415   -672.46337    4144.2859    305.47076     7280 
462000000   -4996.0435   -1461.3982    6450.4557   -592.08244    4126.7277     309.1862     7280 
463000000   -4909.8296    -1338.777    6408.1962   -613.93827    4184.9909     307.1606     7284 
464000000   -4884.7857   -1373.3672    6445.9349    -579.5515      4090.97    308.96951     7280 
465000000   -4865.4097   -1298.4291    6448.1747   -565.41647    4132.3971    309.07687     7282 
466000000   -5010.9341   -1530.2355    6424.3058   -661.46889    4142.1675    307.93277     7283 
467000000   -4955.1749   -1451.0142    6409.0798   -539.89879    4044.0594    307.20295     7282 
468000000   -4881.2987   -1348.0112    6498.4766   -588.70273    4121.9902    311.48796     7280 
469000000   -4954.3444   -1458.1693    6362.4912   -607.82945    4104.0046    304.96984     7279 
470000000    -4792.584   -1267.3124    6504.2583   -619.59543    4144.8671    311.76509     7281 
471000000   -4899.6347   -1328.6668    6595.1955    -565.6031     4136.571    316.12394     7281 
472000000   -4945.6423    -1465.766    6302.2207   -615.48918    4095.3654    302.08093     7279 
473000000   -4910.4608   -1378.8986    6489.8674   -607.02757    4138.5898     311.0753     7280 
474000000   -4876.6643   -1393.7963    6477.0015   -620.14796     4103.016    310.45861     7279 
475000000   -4978.6465   -1479.4436    6475.1482   -635.56118     4134.764    310.36977     7279 
476000000   -4931.7886   -1370.8821    6483.3902   -634.82518    4195.7316    310.76483     7280 
477000000   -4896.8093    -1311.031    6405.4115   -594.17172      4179.95    307.02712     7281 
478000000   -5017.8615   -1507.4493     6458.486    -635.2369    4145.6491    309.57111     7281 
479000000   -4923.6069   -1380.6681    6398.7389   -589.52202    4132.4608    306.70728     7282 
480000000   -4922.3229   -1371.4732    6470.9308   -610.69494    4161.5447    310.16762     7283 
481000000   -5021.1449   -1544.3723    6562.4181   -618.86463    4095.6372    314.55283     7282 
482000000   -4850.8471   -1227.0749    6444.2652   -564.14807    4187.9203    308.88947     7282 
483000000   -5054.6509   -1514.0758    6400.9755   -611.06036    4151.6354    306.81449     7281 
484000000   -4913.3274   -1427.3599    6542.5854   -618.77108    4104.7385     313.6022     7283 
485000000   -4982.4798   -1464.6063    6339.6391   -671.51258    4189.3861    303.87449     7282 
486000000   -5031.6891   -1531.2963    6438.5327   -611.47576    4111.8685     308.6147     7280 
487000000   -4850.6815   -1358.9158    6405.5805   -588.37773    4080.1434    307.03522     7279 
488000000   -5031.9525   -1449.8438    6470.8132   -529.80496    4111.9137    310.16199     7279 
489000000    -4905.378   -1365.6945    6526.1774   -564.43509    4104.1186    312.81573     7279 
490000000   -5001.0836   -1407.0815     6489.585   -521.04884    4115.0509    311.06176     7280 
491000000   -4925.1925   -1379.2506    6483.1195   -601.23938    4147.1813    310.75186     7278 
492000000   -4896.4269   -1335.7528    6457.5358    -610.4374    4171.1115    309.52557     7282 
493000000   -4921.8641   -1391.5926    6518.0566   -552.60558    4082.8771    312.42648     7283 
494000000   -4990.1952   -1351.9841    6423.5654   -585.86797    4224.0791    307.89728     7281 
495000000   -4932.8999   -1485.0001    6468.8179   -647.10904    4095.0088    310.06634     7283 
496000000   -5005.4647   -1395.5027    6571.2523   -579.47844    4189.4405    314.97628     7280 
497000000   -5029.5189   -1484.8015    6463.5274   -636.55896    4181.2764    309.81276     7282 
498000000    -4884.751   -1371.1602     6348.959   -635.61972    4149.2105    304.32121     7282 
499000000   -5014.8451   -1466.7446    6471.4026   -576.85899    4124.9595    310.19024     7283 
500000000   -4987.8005   -1397.5937    6456.9038   -536.49449    4126.7013    309.49527     7281 
Loop time of 23153.4 on 14 procs for 100000000 steps with 7000 atoms

Performance: 11194.903 ns/day, 0.002 hours/ns, 4319.021 timesteps/s
99.6% CPU use with 14 MPI tasks x no OpenMP threads

MPI task timing breakdown:
Section |  min time  |  avg time  |  max time  |%varavg| %total
---------------------------------------------------------------
Pair    | 5824.4     | 6837.4     | 7587.7     | 603.9 | 29.53
Bond    | 1065.2     | 1082       | 1095.1     |  30.3 |  4.67
Neigh   | 4236.4     | 4259.1     | 4292.1     |  26.9 | 18.40
Comm    | 5635.9     | 6416.1     | 7693.3     | 714.9 | 27.71
Output  | 0.029327   | 0.029521   | 0.029638   |   0.0 |  0.00
Modify  | 3714.2     | 3736.1     | 3761.6     |  16.0 | 16.14
Other   |            | 822.6      |            |       |  3.55

Nlocal:    500 ave 527 max 466 min
Histogram: 1 0 1 2 2 2 2 1 2 1
Nghost:    826.643 ave 1047 max 677 min
Histogram: 3 1 4 0 0 0 2 2 1 1
Neighs:    9657.57 ave 11656 max 8498 min
Histogram: 5 1 0 1 1 2 3 0 0 1

Total # of neighbors = 135206
Ave neighs/atom = 19.3151
Ave special neighs/atom = 7.44371
Neighbor list builds = 6161038
Dangerous builds = 0
System init for write_restart ...
System init for write_data ...
Total wall time: 6:25:53
