LAMMPS (5 Jun 2019)
Reading restart file ...
  restart file = 5 Jun 2019, LAMMPS = 5 Jun 2019
  restoring atom style full from restart
  orthogonal box = (-500 -500 -500) to (500 500 500)
  1 by 2 by 7 MPI processor grid
  restoring pair style lj/cut from restart
  restoring bond style hybrid from restart
  restoring angle style cosine from restart
  7000 atoms
  7283 bonds
  6600 angles
Finding 1-2 1-3 1-4 neighbors ...
  special bond factors lj:   0          1          1         
  special bond factors coul: 0          0          0         
  3 = max # of 1-2 neighbors
  4 = max # of 1-3 neighbors
  8 = max # of 1-4 neighbors
  16 = max # of special neighbors
  special bonds CPU = 0.00149959 secs
  read_restart CPU = 0.0100887 secs
Changing box ...
  orthogonal box = (-500 -500 -500) to (500 500 500)
  orthogonal box = (-500 -500 -500) to (500 500 500)
  orthogonal box = (-500 -500 -500) to (500 500 500)
Finding 1-2 1-3 1-4 neighbors ...
  special bond factors lj:   0          1          1         
  special bond factors coul: 0          0          0         
  3 = max # of 1-2 neighbors
  4 = max # of 1-3 neighbors
  8 = max # of 1-4 neighbors
  17064 = # of 1-3 neighbors before angle trim
  13200 = # of 1-3 neighbors after angle trim
  16 = max # of special neighbors
  special bonds CPU = 0.00133804 secs
1000 atoms in group rxnSites
Neighbor list info ...
  update every 1 steps, delay 1 steps, check yes
  max neighbors/atom: 2000, page size: 100000
  master list distance cutoff = 26.9
  ghost atom cutoff = 26.9
  binsize = 13.45, bins = 75 75 75
  2 neighbor lists, perpetual/occasional/extra = 1 1 0
  (1) pair lj/cut, perpetual
      attributes: half, newton on
      pair build: half/bin/newton
      stencil: half/bin/3d/newton
      bin: standard
  (2) fix bond/create/random, occasional, copy from (1)
      attributes: half, newton on
      pair build: copy
      stencil: none
      bin: none
Setting up Verlet run ...
  Unit style    : real
  Current step  : 400000000
  Time step     : 30
Per MPI rank memory allocation (min/avg/max) = 10.32 | 10.75 | 11.78 Mbytes
Step E_pair PotEng KinEng E_bond E_angle Temp Bonds 
400000000   -4811.3255   -1250.4799    6427.2076   -619.69659    4180.5422    308.07186     7283 
401000000   -4952.1795   -1374.1038    6575.4061   -588.47541    4166.5512    315.17538     7284 
402000000   -4892.9093   -1423.3457    6440.5462   -684.78078    4154.3444    308.71121     7285 
403000000   -4935.1375   -1379.1505    6554.8401   -614.23951    4170.2265     314.1896     7280 
404000000    -4885.142   -1283.4892    6450.7696   -559.67754    4161.3303    309.20124     7282 
405000000   -5018.1043   -1436.5371    6455.8258   -548.58945    4130.1566     309.4436     7283 
406000000   -4920.5041   -1382.8179    6516.2324   -613.24032    4150.9266    312.33904     7283 
407000000   -4990.4271   -1460.7212    6437.9364   -597.41953    4127.1255    308.58612     7285 
408000000   -5040.9888   -1434.4617      6526.86   -530.76086     4137.288    312.84845     7279 
409000000    -4957.262   -1401.0652    6349.5178   -591.65772    4147.8545      304.348     7280 
410000000   -4974.6253   -1453.8708    6420.4008   -636.76597    4157.5205     307.7456     7281 
411000000   -4906.2174   -1328.0813    6455.9767   -577.88056    4156.0166    309.45084     7280 
412000000   -4925.3337   -1371.1265    6456.4644   -606.56685    4160.7741    309.47421     7282 
413000000   -4895.5957   -1401.2942    6468.7054   -625.55605    4119.8576    310.06095     7284 
414000000   -4967.7442   -1344.0232    6481.0693   -584.54225    4208.2632    310.65359     7283 
415000000   -4889.4637    -1389.239    6428.4066   -581.16589    4081.3906    308.12933     7282 
416000000   -4985.3734   -1533.7234    6507.0658   -640.15654    4091.8066    311.89966     7282 
417000000   -4960.6535   -1486.5282    6573.1484   -620.04912    4094.1744    315.06716     7281 
418000000   -4965.5865   -1501.6077    6475.8819   -562.22489    4026.2037    310.40494     7282 
419000000     -4856.92   -1273.6738    6516.6058   -546.86875     4130.115    312.35694     7283 
420000000   -4916.1133   -1348.1912    6540.4727    -597.7346    4165.6567    313.50094     7286 
421000000   -5020.1584   -1515.4593    6552.2206   -649.81594    4154.5151    314.06404     7283 
422000000   -4888.7504   -1325.8226    6499.5944   -568.05743    4130.9852    311.54154     7282 
423000000   -4882.2325   -1387.5356    6460.4873   -643.32562    4138.0226    309.66704     7286 
424000000   -4975.7676    -1519.793    6498.7127   -636.46608    4092.4408    311.49928     7284 
425000000   -4907.8135   -1301.7426    6386.9431   -597.24168    4203.3126    306.14189     7284 
426000000   -4830.0874   -1265.6674    6501.8124   -545.07847    4109.4984    311.64785     7281 
427000000   -4923.1136   -1346.4036    6489.0275   -598.38811    4175.0981    311.03504     7283 
428000000   -4907.8017   -1313.1257    6341.1531   -623.86181    4218.5379    303.94706     7281 
429000000   -4993.9686   -1395.4482    6456.9815   -580.14347    4178.6639      309.499     7284 
430000000   -4914.3848   -1338.5277    6465.7296    -627.6829      4203.54    309.91831     7283 
431000000   -4996.5112    -1365.513    6459.4301   -586.93663    4217.9348    309.61637     7277 
432000000   -4909.1399   -1311.4858    6388.9529   -551.72082    4149.3749    306.23822     7279 
433000000   -4883.8223   -1369.4699    6452.2327   -568.99373    4083.3461    309.27138     7284 
434000000   -4907.0492   -1501.4236    6467.7886   -626.53194    4032.1575    310.01701     7288 
435000000   -4910.2243   -1338.5741    6395.1914   -646.88098    4218.5311    306.53725     7284 
436000000   -4898.9387   -1375.0956    6460.3445   -654.34514    4178.1883    309.66019     7288 
437000000   -4865.6811   -1365.5606    6393.3449   -611.70569    4111.8262    306.44874     7284 
438000000   -4884.4036    -1359.065    6575.2914   -552.85537     4078.194    315.16988     7285 
439000000   -4983.0477   -1436.7857     6588.588   -628.25557    4174.5176    315.80722     7283 
440000000   -4825.3995   -1247.4324    6412.7311   -562.13028    4140.0974    307.37797     7281 
441000000   -4984.9364   -1367.0178    6587.6201   -630.04555    4247.9642    315.76083     7281 
442000000   -4912.0334   -1383.1765    6512.7545   -614.63509     4143.492    312.17234     7283 
443000000   -4909.1128   -1314.7839    6403.4101   -572.51764    4166.8466    306.93119     7277 
444000000   -4844.9961   -1233.6285    6583.0192   -509.39147    4120.7591     315.5403     7276 
445000000   -4995.9725   -1418.2969    6418.4287   -572.90078    4150.5764    307.65107     7279 
446000000   -5078.5645   -1504.1897    6603.7331   -628.65453    4203.0293    316.53316     7282 
447000000   -4844.6953    -1373.091    6459.7705   -707.49464     4179.099    309.63268     7281 
448000000   -5030.5046   -1449.1083    6416.9727   -640.36262    4221.7589    307.58128     7284 
449000000   -4981.2071   -1484.9793      6391.39   -634.44793    4130.6757    306.35503     7285 
450000000   -4991.1087   -1407.5284    6477.1688   -585.82678    4169.4071    310.46662     7285 
451000000   -4977.2714   -1452.9861    6614.9296   -660.26497    4184.5503    317.06984     7282 
452000000   -4993.2103   -1323.9084    6442.6219   -593.65259    4262.9545    308.81071     7279 
453000000   -4830.2253   -1220.9438    6413.7038   -508.26475    4117.5462    307.42459     7283 
454000000   -4890.5927   -1358.7265    6400.8168   -608.14692    4140.0132    306.80689     7278 
455000000   -4995.7173   -1445.4558    6447.5511   -606.19931    4156.4608    309.04698     7279 
456000000   -4853.7704     -1321.15      6381.99   -585.45511    4118.0755    305.90447     7281 
457000000    -4869.925   -1308.0747    6376.2545   -623.72576    4185.5761    305.62955     7278 
458000000   -4854.7808   -1284.8521    6504.0119   -597.92964    4167.8584    311.75328     7278 
459000000   -4803.8715   -1234.8434    6448.0246   -571.02251    4140.0506    309.06967     7279 
460000000   -4879.1652   -1232.5985    6433.4247   -571.08303    4217.6497    308.36986     7279 
461000000   -4985.2781    -1418.645    6473.7173   -598.87391     4165.507    310.30119     7275 
462000000   -5026.2533   -1485.9453     6399.604    -665.2183    4205.5263    306.74875     7280 
463000000   -4872.2142   -1334.7178    6433.3226   -599.76125    4137.2577    308.36497     7279 
464000000   -5008.2865   -1480.7449    6475.0099   -628.71626    4156.2578    310.36315     7282 
465000000   -4834.7913   -1330.2456    6390.3888   -611.22803    4115.7737    306.30705     7281 
466000000   -4931.0311   -1331.3732    6425.2556   -586.19782    4185.8557     307.9783     7279 
467000000   -4956.0031   -1351.9907    6439.0236   -569.61631    4173.6287    308.63823     7277 
468000000   -4978.2982   -1372.8976    6403.1058   -574.55548     4179.956     306.9166     7280 
469000000   -4913.3886    -1387.598    6409.0101   -617.04692    4142.8376    307.19961     7282 
470000000   -4929.4517   -1344.8646    6428.3038   -598.58348    4183.1705    308.12441     7280 
471000000   -4936.4608   -1284.6122    6544.5624   -584.29266    4236.1413    313.69696     7281 
472000000   -5032.4672    -1423.097    6490.4236   -536.43861    4145.8089    311.10196     7278 
473000000   -5016.2425   -1473.1854    6528.0439   -563.00284      4106.06    312.90519     7280 
474000000   -4916.9601   -1346.2612    6480.1473    -558.7117    4129.4106    310.60939     7280 
475000000   -4837.1535   -1230.0287    6379.1262    -586.9852    4194.1101     305.7672     7277 
476000000   -4916.4503   -1432.3197    6517.1125   -653.40749    4137.5381    312.38122     7283 
477000000   -4932.5257    -1316.496    6418.3941   -589.56386    4205.5935    307.64941     7281 
478000000   -5006.3751   -1407.8283    6521.5145   -524.96445    4123.5112    312.59222     7278 
479000000   -4969.3071   -1373.1532    6514.0545   -562.55634    4158.7102    312.23465     7280 
480000000   -5014.5506   -1467.3993    6491.7532   -576.48169     4123.633    311.16569     7279 
481000000   -4979.6587    -1432.584    6491.0412   -601.23701    4148.3117    311.13157     7280 
482000000   -4932.7796   -1438.9874     6407.107   -560.89213    4054.6843    307.10839     7279 
483000000    -4929.934   -1287.7098     6488.076   -498.69184     4140.916    310.98943     7280 
484000000   -4966.4149   -1336.2568    6390.6089   -560.83449    4190.9926     306.3176     7279 
485000000   -4964.4642   -1421.9937    6445.3651   -611.13509    4153.6056    308.94219     7284 
486000000   -4928.6957   -1455.3379    6473.7065   -626.73242    4100.0902    310.30067     7282 
487000000   -4844.7998   -1332.3935    6428.7502   -586.02949    4098.4358     308.1458     7280 
488000000   -4847.5748   -1287.5275    6431.1324    -589.9188    4149.9662    308.25999     7282 
489000000   -4817.7789   -1227.9649    6452.9163   -603.88863    4193.7027    309.30414     7281 
490000000   -4889.2972   -1234.6122    6445.7973   -548.40693    4203.0919    308.96291     7281 
491000000   -4975.9252   -1495.0109    6458.1743   -599.17228    4080.0866    309.55617     7280 
492000000   -5033.5177   -1495.9882    6478.1448   -565.91397    4103.4435    310.51341     7280 
493000000    -4931.824   -1382.0053    6506.2396   -573.71357    4123.5323    311.86006     7278 
494000000    -4867.184   -1375.1642    6357.9489   -558.64074    4050.6605    304.75212     7276 
495000000   -5021.9795   -1382.8995    6447.6309   -564.95761    4204.0375     309.0508     7276 
496000000   -5021.8777   -1401.1539    6434.0001   -553.25366    4173.9774    308.39744     7278 
497000000   -4943.7486   -1458.1438    6625.2042    -609.1588    4094.7637    317.56233     7278 
498000000   -4992.5164   -1381.6069    6451.7453   -507.42146     4118.331    309.24801     7273 
499000000   -4935.9241    -1368.652    6501.8225   -552.46492    4119.7371    311.64834     7279 
500000000   -4914.1271    -1347.043    6476.6628   -576.43068    4143.5148    310.44237     7279 
Loop time of 23144.8 on 14 procs for 100000000 steps with 7000 atoms

Performance: 11199.075 ns/day, 0.002 hours/ns, 4320.631 timesteps/s
99.6% CPU use with 14 MPI tasks x no OpenMP threads

MPI task timing breakdown:
Section |  min time  |  avg time  |  max time  |%varavg| %total
---------------------------------------------------------------
Pair    | 5855.1     | 6849       | 7727.3     | 629.5 | 29.59
Bond    | 1065.7     | 1082.8     | 1098.3     |  23.6 |  4.68
Neigh   | 4219.8     | 4251.5     | 4288.3     |  31.4 | 18.37
Comm    | 5490.8     | 6414.4     | 7656.8     | 715.7 | 27.71
Output  | 0.029182   | 0.029286   | 0.029424   |   0.0 |  0.00
Modify  | 3710.9     | 3730       | 3744.6     |  13.1 | 16.12
Other   |            | 817        |            |       |  3.53

Nlocal:    500 ave 537 max 464 min
Histogram: 2 0 2 2 1 1 2 2 0 2
Nghost:    798.786 ave 1060 max 614 min
Histogram: 1 3 3 1 0 1 3 1 0 1
Neighs:    9520 ave 11061 max 7984 min
Histogram: 1 1 2 0 2 3 2 2 0 1

Total # of neighbors = 133280
Ave neighs/atom = 19.04
Ave special neighs/atom = 7.43629
Neighbor list builds = 6160943
Dangerous builds = 0
System init for write_restart ...
System init for write_data ...
Total wall time: 6:25:44
