LAMMPS (5 Jun 2019)
Reading restart file ...
  restart file = 5 Jun 2019, LAMMPS = 5 Jun 2019
  restoring atom style full from restart
  orthogonal box = (-500 -500 -500) to (500 500 500)
  1 by 2 by 7 MPI processor grid
  restoring pair style lj/cut from restart
  restoring bond style hybrid from restart
  restoring angle style cosine from restart
  7000 atoms
  7283 bonds
  6600 angles
Finding 1-2 1-3 1-4 neighbors ...
  special bond factors lj:   0          1          1         
  special bond factors coul: 0          0          0         
  3 = max # of 1-2 neighbors
  4 = max # of 1-3 neighbors
  8 = max # of 1-4 neighbors
  16 = max # of special neighbors
  special bonds CPU = 0.00150153 secs
  read_restart CPU = 0.0108195 secs
Changing box ...
  orthogonal box = (-500 -500 -500) to (500 500 500)
  orthogonal box = (-500 -500 -500) to (500 500 500)
  orthogonal box = (-500 -500 -500) to (500 500 500)
Finding 1-2 1-3 1-4 neighbors ...
  special bond factors lj:   0          1          1         
  special bond factors coul: 0          0          0         
  3 = max # of 1-2 neighbors
  4 = max # of 1-3 neighbors
  8 = max # of 1-4 neighbors
  17064 = # of 1-3 neighbors before angle trim
  13200 = # of 1-3 neighbors after angle trim
  16 = max # of special neighbors
  special bonds CPU = 0.00138043 secs
1000 atoms in group rxnSites
Neighbor list info ...
  update every 1 steps, delay 1 steps, check yes
  max neighbors/atom: 2000, page size: 100000
  master list distance cutoff = 26.9
  ghost atom cutoff = 26.9
  binsize = 13.45, bins = 75 75 75
  2 neighbor lists, perpetual/occasional/extra = 1 1 0
  (1) pair lj/cut, perpetual
      attributes: half, newton on
      pair build: half/bin/newton
      stencil: half/bin/3d/newton
      bin: standard
  (2) fix bond/create/random, occasional, copy from (1)
      attributes: half, newton on
      pair build: copy
      stencil: none
      bin: none
Setting up Verlet run ...
  Unit style    : real
  Current step  : 400000000
  Time step     : 30
Per MPI rank memory allocation (min/avg/max) = 10.32 | 10.75 | 11.78 Mbytes
Step E_pair PotEng KinEng E_bond E_angle Temp Bonds 
400000000   -4811.3255   -1250.4799    6427.2076   -619.69659    4180.5422    308.07186     7283 
401000000   -4898.4683   -1384.7182    6476.3426   -643.12125    4156.8713    310.42702     7280 
402000000   -4896.5991     -1263.58    6430.9736   -559.41032    4192.4294    308.25237     7279 
403000000    -4968.291   -1323.9771    6452.3776    -557.2725    4201.5864    309.27832     7277 
404000000   -4933.4898   -1257.6757    6412.0555   -537.82663    4213.6407    307.34559     7277 
405000000   -4979.0377   -1400.9133    6515.7091   -568.91367    4147.0381    312.31396     7278 
406000000   -4897.0922   -1309.1179    6372.6971   -567.49636    4155.4706    305.45904     7279 
407000000   -4905.1013   -1420.7019    6459.8288   -647.26196    4131.6614    309.63547     7279 
408000000   -4910.7448   -1407.6122    6490.3922    -586.5387    4089.6713    311.10045     7278 
409000000   -4901.2009   -1474.1316     6416.286   -633.97921    4061.0485    307.54836     7279 
410000000   -4915.0548   -1442.7444    6420.3841   -607.76053     4080.071    307.74479     7277 
411000000   -4794.9548   -1324.2058    6470.0061   -652.65724    4123.4063     310.1233     7279 
412000000   -4864.1456   -1403.7767    6563.6017   -614.54465    4074.9136    314.60957     7278 
413000000   -4927.1323   -1415.4082    6518.6041   -586.99147    4098.7155    312.45272     7279 
414000000   -4910.1096   -1276.6697    6518.2496   -556.40516     4189.845    312.43573     7275 
415000000   -4870.8169    -1304.428    6507.8813   -558.91586    4125.3048    311.93875     7277 
416000000   -4893.1684   -1335.2809    6464.7522   -623.71863    4181.6061    309.87147     7280 
417000000    -4881.132      -1250.5    6575.1705   -579.82412    4210.4561    315.16409     7282 
418000000   -4929.8657   -1414.2168    6469.2253   -682.82253    4198.4715    310.08587     7281 
419000000   -5017.5948   -1399.2204    6407.7495   -578.95411    4197.3284    307.13919     7282 
420000000   -5020.7012   -1438.5896    6460.3825   -566.81401    4148.9256    309.66202     7279 
421000000   -4961.4468   -1362.3036    6415.9778   -592.00358    4191.1468    307.53359     7281 
422000000   -4946.8187   -1500.6843    6437.5698   -650.56724    4096.7017    308.56855     7281 
423000000   -4844.6741   -1297.1994    6426.7163    -589.3344    4136.8092    308.04831     7279 
424000000   -4878.0892   -1265.2108    6470.9345   -540.02507    4152.9035     310.1678     7277 
425000000   -4853.8794   -1382.1045    6454.7909    -600.4918    4072.2667      309.394     7278 
426000000   -4846.7994   -1241.6737    6376.0139   -545.56441    4150.6901    305.61802     7278 
427000000   -4907.9658   -1260.7345    6482.9117   -524.05304    4171.2844     310.7419     7275 
428000000   -4879.1984   -1268.0848    6363.9633    -556.1511    4167.2648    305.04041     7276 
429000000    -4863.998   -1161.2251    6462.8854   -513.05067    4215.8236    309.78199     7272 
430000000   -4833.7746   -1272.5084    6329.7421   -602.72112    4163.9874     303.4001     7279 
431000000   -4896.4043    -1309.556    6633.1908   -555.76218    4142.6104    317.94514     7281 
432000000   -4948.5926   -1483.0751     6451.122   -630.22217    4095.7397    309.21814     7281 
433000000   -4940.1355   -1407.2088     6452.263   -609.51427     4142.441    309.27283     7281 
434000000   -4934.4897   -1398.6228    6398.1509   -610.97705     4146.844     306.6791     7282 
435000000   -5096.0435   -1586.1985    6514.1677   -645.39409    4155.2391    312.24007     7282 
436000000   -4932.5315   -1319.5534    6481.1699    -643.1279     4256.106    310.65841     7284 
437000000   -4919.1148   -1420.5558    6637.9443    -655.6563    4154.2153    318.17299     7284 
438000000   -5128.2303   -1613.6462    6478.4091    -589.9645    4104.5486    310.52608     7284 
439000000   -5002.7924   -1448.1257     6531.534   -601.52582    4156.1926    313.07248     7280 
440000000   -4893.3358   -1319.0793    6584.9043   -576.20255    4150.4591    315.63065     7279 
441000000   -4904.7724   -1366.7565    6456.3931   -569.18469    4107.2006    309.47079     7283 
442000000   -5040.7744    -1551.992    6411.0101   -641.13244    4129.9148    307.29548     7284 
443000000   -4943.6191    -1498.598    6429.3779   -636.17039    4081.1915    308.17589     7283 
444000000   -4949.8744   -1402.3186    6515.7402   -606.79877    4154.3546    312.31545     7279 
445000000   -4929.2493   -1437.7283    6465.6587   -586.39186    4077.9129    309.91492     7276 
446000000   -4981.8033   -1391.1785    6408.5969   -569.63694    4160.2617     307.1798     7277 
447000000   -5020.7526   -1453.8617    6498.5178   -524.04984    4090.9407    311.48993     7275 
448000000   -4996.0825   -1406.4483    6488.6607   -574.73511    4164.3693    311.01746     7276 
449000000   -4983.2209   -1509.6537    6426.8558   -636.22292    4109.7901      308.055     7276 
450000000   -4911.8892   -1403.8106     6476.582   -589.43991    4097.5185     310.4385     7277 
451000000   -4852.9967    -1262.782    6464.2735   -592.17147    4182.3862    309.84852     7279 
452000000   -4898.8891    -1366.722    6354.6978   -602.03507    4134.2023    304.59629     7278 
453000000   -4867.5248   -1322.3991    6462.0179    -593.5423     4138.668     309.7404     7279 
454000000   -4978.5955   -1452.2286    6452.3991   -643.61965    4169.9866    309.27935     7279 
455000000   -4922.6326   -1464.0023     6494.732   -661.32751    4119.9578    311.30847     7283 
456000000   -4920.1773   -1370.6732    6532.2135   -662.80848    4212.3126    313.10505     7285 
457000000    -5031.888   -1510.6824    6372.9927   -648.58874    4169.7943    305.47321     7284 
458000000   -4923.1277   -1465.7045    6557.5987   -581.61362    4039.0368    314.32183     7285 
459000000   -5031.4293   -1624.7684    6438.7244   -629.56415    4036.2251    308.62389     7284 
460000000   -4882.5122     -1408.85     6341.557    -619.5262    4093.1884    303.96642     7280 
461000000    -4974.524   -1556.6917    6563.3584   -640.83944    4058.6717     314.5979     7284 
462000000   -4890.3127    -1363.363    6425.5038   -589.22612    4116.1758    307.99019     7283 
463000000   -4910.7334   -1378.5904    6384.5522    -571.8214    4103.9645    306.02729     7280 
464000000      -4951.1   -1366.1733    6446.8431   -531.63422    4116.5609    309.01304     7279 
465000000   -5026.1986   -1548.1857    6568.4359    -656.1614    4134.1743    314.84128     7279 
466000000   -4942.2628   -1420.6524    6439.6352   -574.99087    4096.6013    308.66754     7281 
467000000   -4993.6859   -1454.1794    6464.7921   -574.10852    4113.6151    309.87338     7277 
468000000   -4973.9948   -1472.8178    6588.2751   -571.43482    4072.6119    315.79222     7279 
469000000   -4833.8984   -1276.2231    6584.3835   -642.88904    4200.5643    315.60569     7282 
470000000   -4872.5959   -1254.7904    6408.3321   -575.42663    4193.2321    307.16711     7279 
471000000   -4846.4037   -1425.3439    6421.4863    -640.2646    4061.3243    307.79762     7279 
472000000   -4958.6481   -1352.6099    6432.0555   -525.25795    4131.2962    308.30423     7279 
473000000   -4957.7345   -1491.3962    6500.9727   -634.08981    4100.4281    311.60761     7279 
474000000   -4997.8441   -1494.9017    6434.1939   -640.70526    4143.6477    308.40673     7277 
475000000   -5027.0068   -1454.5154     6520.384   -529.46415    4101.9555    312.53803     7283 
476000000   -4958.3581   -1392.3234    6434.8266   -584.42508    4150.4598    308.43706     7280 
477000000   -5001.1755   -1524.2062    6537.0894   -603.31881    4080.2882    313.33877     7282 
478000000   -5060.6385   -1630.9596    6335.4044   -655.33624    4085.0151    303.67151     7284 
479000000   -4886.2452   -1448.7772    6401.2921   -598.50289    4035.9708    306.82967     7282 
480000000   -4957.4413   -1453.6551    6531.4451   -616.54528    4120.3315    313.06822     7280 
481000000   -4865.6738   -1342.6151    6561.7348   -567.75775    4090.8165    314.52008     7284 
482000000   -4821.8951   -1353.7721    6365.2245   -670.94606    4139.0691    305.10086     7283 
483000000   -4952.2973   -1452.0206    6449.4058   -595.40785    4095.6846    309.13588     7281 
484000000   -4972.1756   -1410.7543    6486.7179   -629.43423    4190.8556    310.92433     7284 
485000000   -4910.4555   -1386.7295    6407.1336   -599.79946    4123.5254    307.10966     7278 
486000000   -5004.6655   -1434.1807    6446.9015   -594.10009    4164.5849    309.01584     7281 
487000000   -4981.4439   -1505.5491    6517.9714    -557.7384    4033.6332    312.42239     7283 
488000000   -5018.2768    -1554.543    6421.3443   -600.94701    4064.6808    307.79082     7283 
489000000    -4999.763   -1586.0546    6446.2295   -654.51921    4068.2276    308.98363     7284 
490000000   -5061.8607   -1654.6409     6473.732   -613.46429     4020.684    310.30189     7282 
491000000   -5001.3357   -1532.0514    6527.4115   -603.56687    4072.8512    312.87488     7280 
492000000   -4940.6865   -1444.5529    6416.7553   -628.43021    4124.5639    307.57086     7281 
493000000    -4996.928   -1395.1256    6525.9386   -566.68657     4168.489    312.80428     7277 
494000000   -4997.4431   -1497.4062     6430.504   -611.57055    4111.6075    308.22987     7279 
495000000   -4947.5966    -1439.079    6560.3476   -562.23372    4070.7513    314.45359     7280 
496000000   -4989.2904    -1521.316    6507.5416   -606.95937    4074.9338    311.92247     7284 
497000000   -5019.0699   -1428.2826    6514.2133    -571.9572    4162.7446    312.24226     7279 
498000000   -4985.6834   -1363.5301    6440.9241   -586.11543    4208.2687    308.72933     7282 
499000000   -5108.0817   -1526.6916    6457.9218   -576.05335    4157.4434    309.54407     7281 
500000000   -5119.0936   -1780.9864    6507.9733   -681.59955    4019.7068    311.94316     7284 
Loop time of 24580.8 on 14 procs for 100000000 steps with 7000 atoms

Performance: 10544.800 ns/day, 0.002 hours/ns, 4068.210 timesteps/s
99.5% CPU use with 14 MPI tasks x no OpenMP threads

MPI task timing breakdown:
Section |  min time  |  avg time  |  max time  |%varavg| %total
---------------------------------------------------------------
Pair    | 6165.5     | 7089.7     | 8122.7     | 771.9 | 28.84
Bond    | 1066.4     | 1118.2     | 1175.1     | 120.6 |  4.55
Neigh   | 4439.2     | 4474.8     | 4518.2     |  33.8 | 18.20
Comm    | 6064.3     | 7123.6     | 8157.1     | 815.0 | 28.98
Output  | 0.43767    | 0.43782    | 0.4379     |   0.0 |  0.00
Modify  | 3815.8     | 3898.3     | 3983.4     | 114.4 | 15.86
Other   |            | 875.7      |            |       |  3.56

Nlocal:    500 ave 531 max 476 min
Histogram: 1 3 2 1 2 1 1 0 0 3
Nghost:    842.5 ave 1080 max 628 min
Histogram: 2 1 3 1 1 0 0 4 0 2
Neighs:    9874 ave 11414 max 8047 min
Histogram: 1 1 2 2 0 1 3 1 0 3

Total # of neighbors = 138236
Ave neighs/atom = 19.748
Ave special neighs/atom = 7.45486
Neighbor list builds = 6160819
Dangerous builds = 0
System init for write_restart ...
System init for write_data ...
Total wall time: 6:49:41
