LAMMPS (5 Jun 2019)
Reading restart file ...
  restart file = 5 Jun 2019, LAMMPS = 5 Jun 2019
  restoring atom style full from restart
  orthogonal box = (-500 -500 -500) to (500 500 500)
  1 by 2 by 7 MPI processor grid
  restoring pair style lj/cut from restart
  restoring bond style hybrid from restart
  restoring angle style cosine from restart
  7000 atoms
  7283 bonds
  6600 angles
Finding 1-2 1-3 1-4 neighbors ...
  special bond factors lj:   0          1          1         
  special bond factors coul: 0          0          0         
  3 = max # of 1-2 neighbors
  4 = max # of 1-3 neighbors
  8 = max # of 1-4 neighbors
  16 = max # of special neighbors
  special bonds CPU = 0.00143145 secs
  read_restart CPU = 0.00996022 secs
Changing box ...
  orthogonal box = (-500 -500 -500) to (500 500 500)
  orthogonal box = (-500 -500 -500) to (500 500 500)
  orthogonal box = (-500 -500 -500) to (500 500 500)
Finding 1-2 1-3 1-4 neighbors ...
  special bond factors lj:   0          1          1         
  special bond factors coul: 0          0          0         
  3 = max # of 1-2 neighbors
  4 = max # of 1-3 neighbors
  8 = max # of 1-4 neighbors
  17064 = # of 1-3 neighbors before angle trim
  13200 = # of 1-3 neighbors after angle trim
  16 = max # of special neighbors
  special bonds CPU = 0.00132771 secs
1000 atoms in group rxnSites
Neighbor list info ...
  update every 1 steps, delay 1 steps, check yes
  max neighbors/atom: 2000, page size: 100000
  master list distance cutoff = 26.9
  ghost atom cutoff = 26.9
  binsize = 13.45, bins = 75 75 75
  2 neighbor lists, perpetual/occasional/extra = 1 1 0
  (1) pair lj/cut, perpetual
      attributes: half, newton on
      pair build: half/bin/newton
      stencil: half/bin/3d/newton
      bin: standard
  (2) fix bond/create/random, occasional, copy from (1)
      attributes: half, newton on
      pair build: copy
      stencil: none
      bin: none
Setting up Verlet run ...
  Unit style    : real
  Current step  : 400000000
  Time step     : 30
Per MPI rank memory allocation (min/avg/max) = 10.32 | 10.75 | 11.78 Mbytes
Step E_pair PotEng KinEng E_bond E_angle Temp Bonds 
400000000   -4811.3255   -1250.4799    6427.2076   -619.69659    4180.5422    308.07186     7283 
401000000   -4742.2461   -1195.6465    6404.7102   -651.63641     4198.236     306.9935     7283 
402000000   -4964.6816   -1460.6857    6521.3007   -618.95954    4122.9554    312.58197     7281 
403000000   -4952.3024   -1467.5142    6355.3509   -623.37455    4108.1627    304.62759     7280 
404000000   -4982.7995   -1397.4844    6444.6649   -592.25962    4177.5747    308.90863     7282 
405000000   -4922.1982    -1356.186    6484.7528   -554.01407    4120.0263    310.83014     7277 
406000000   -4925.5271   -1347.2751    6575.8559   -571.75588    4150.0079    315.19694     7277 
407000000   -4873.1748   -1282.9154     6389.795   -548.90602    4139.1654    306.27858     7281 
408000000   -4975.7742   -1518.9167    6450.8193   -686.61777    4143.4753    309.20363     7283 
409000000   -4955.5138   -1321.1975    6495.8971   -527.35932    4161.6755    311.36432     7277 
410000000   -4887.4879   -1238.8055     6451.381   -467.41395    4116.0963    309.23055     7279 
411000000   -4809.4476   -1303.2698    6521.7729   -586.95926     4093.137    312.60461     7277 
412000000   -4917.6029   -1372.1539    6422.4988   -602.63413    4148.0831    307.84616     7279 
413000000    -4870.321   -1319.4578    6369.1705   -639.09404    4189.9572       305.29     7282 
414000000    -4898.992   -1302.9519    6509.6644   -583.43545    4179.4756    312.02422     7280 
415000000   -4903.4087    -1453.365    6476.4163   -595.92914    4045.9729    310.43055     7278 
416000000   -4867.2026    -1367.806    6393.4757   -660.97602    4160.3726    306.45501     7284 
417000000   -4896.9642   -1363.6824    6471.7352   -628.59525     4161.877    310.20618     7279 
418000000   -4998.8971   -1455.1768    6490.7671   -570.06293    4113.7832    311.11842     7279 
419000000   -5044.0069   -1570.2063     6434.375   -608.94074    4082.7413    308.41541     7280 
420000000   -5023.6052   -1422.1903    6498.1756   -594.53634    4195.9512    311.47353     7282 
421000000   -4996.0832   -1469.8378     6395.597   -650.33354    4176.5789    306.55669     7281 
422000000   -4905.7475   -1381.6037    6565.7982   -661.34106    4185.4849    314.71485     7285 
423000000   -4931.5098   -1417.3358    6406.3695    -631.4056    4145.5796    307.07304     7287 
424000000   -5062.4679    -1435.557    6518.5088   -604.53898    4231.4498    312.44815     7287 
425000000   -4969.2509   -1486.6767    6408.5795   -662.56514    4145.1393    307.17897     7288 
426000000   -4915.3881   -1394.6793    6495.9046    -648.9919    4169.7007    311.36468     7287 
427000000   -4919.4665   -1422.8684    6487.7153   -639.43579    4136.0339    310.97214     7288 
428000000   -4801.6149   -1270.5861    6463.8262   -557.50981    4088.5387    309.82708     7286 
429000000   -4948.4519   -1411.8949    6586.4751   -646.01836    4182.5753    315.70595     7285 
430000000   -4967.6519   -1439.7412    6569.3734   -637.84355    4165.7542    314.88622     7287 
431000000   -4934.7394   -1325.9006     6541.771   -523.73626    4132.5751    313.56317     7286 
432000000   -4981.3955    -1492.508    6506.7998   -671.74009    4160.6276    311.88691     7286 
433000000   -4928.2189   -1455.3576    6540.3094   -659.06283    4131.9241    313.49311     7287 
434000000   -4925.9151   -1486.4919    6473.1808   -675.45978     4114.883    310.27547     7286 
435000000   -4987.4659   -1479.9823    6425.6356   -621.01958    4128.5032    307.99651     7282 
436000000   -4912.2292   -1363.6496    6452.5394   -577.09454    4125.6741    309.28608     7282 
437000000   -4904.8416   -1292.4304    6514.8522   -580.10318    4192.5143    312.27288     7279 
438000000   -4848.8746    -1212.329    6467.2068   -554.89063    4191.4362    309.98912     7283 
439000000   -4848.8657   -1206.3216    6603.7426   -538.30225    4180.8464    316.53362     7282 
440000000   -4865.2781   -1330.6144     6568.959   -604.17087    4138.8345    314.86635     7280 
441000000   -4916.8373     -1430.52    6431.8546   -584.85188    4071.1692     308.2946     7278 
442000000   -4987.8609   -1377.6936     6483.666   -585.66768     4195.835    310.77805     7272 
443000000   -4964.4398   -1366.6207    6527.3559   -528.69834    4126.5174    312.87221     7277 
444000000   -5003.9533   -1457.0564    6544.2954   -553.05101    4099.9478    313.68417     7277 
445000000   -4967.1222   -1362.7367    6687.0064   -552.38545     4156.771    320.52466     7281 
446000000    -5002.967   -1502.7797    6435.0035   -656.90503    4157.0923    308.44554     7283 
447000000   -4881.4946   -1362.8264    6470.8844   -676.25354    4194.9217     310.1654     7281 
448000000   -4953.5879   -1417.4644    6438.7773   -540.36584    4076.4893    308.62642     7276 
449000000   -4888.7225    -1275.463     6397.527   -530.97114    4144.2307     306.6492     7275 
450000000   -4801.1097   -1219.5576     6529.227   -538.77446    4120.3266     312.9619     7279 
451000000   -5019.2143    -1391.849    6445.1349   -574.37962    4201.7449    308.93116     7280 
452000000   -4900.2822   -1413.8143    6440.6128   -575.96098    4062.4288     308.7144     7283 
453000000   -4958.7085   -1486.6385    6510.1708   -641.52942    4113.5994    312.04849     7283 
454000000   -4955.3335   -1495.6838    6580.9004   -638.59933     4098.249    315.43874     7279 
455000000   -4931.3308   -1401.3804    6288.2594   -575.16053    4105.1109    301.41173     7279 
456000000   -4903.5316    -1452.031     6400.592   -604.23833     4055.739    306.79611     7278 
457000000   -4932.0995   -1307.1927    6382.1887   -526.68555    4151.5923    305.91399     7277 
458000000   -4990.0872    -1431.551    6364.3274   -565.59169    4124.1279    305.05786     7275 
459000000   -5055.5627   -1523.8225    6401.9644   -534.72061    4066.4608    306.86189     7276 
460000000    -5020.838   -1556.3579    6355.9809    -649.9046    4114.3847    304.65779     7277 
461000000    -5032.441   -1448.1304    6422.3275   -550.10962    4134.4202    307.83795     7275 
462000000   -5097.4017   -1715.9538    6431.9252   -698.75888    4080.2068    308.29799     7280 
463000000   -5007.5499    -1473.324    6502.4066   -551.74991    4085.9758    311.67633     7278 
464000000   -4894.5829   -1451.0714     6487.193     -608.403    4051.9144    310.94711     7280 
465000000   -4974.3266   -1471.3453    6467.5233   -578.33974     4081.321    310.00429     7278 
466000000   -5004.8533   -1354.9575    6531.4773    -529.9234    4179.8192    313.06976     7273 
467000000   -5001.2649    -1529.511    6524.8742   -635.28918    4107.0431    312.75326     7274 
468000000   -5053.8515   -1502.8166    6409.8819   -592.31445    4143.3493     307.2414     7275 
469000000   -4930.2316   -1502.6835    6449.6989   -663.62104    4091.1692    309.14993     7277 
470000000   -5016.8137   -1396.9878    6492.8908   -525.16361    4144.9896    311.22022     7276 
471000000   -4982.4741   -1326.6463    6509.4512   -563.63376    4219.4616      312.014     7277 
472000000   -4976.1147   -1473.7555    6464.6136   -631.02901    4133.3882    309.86482     7278 
473000000   -5055.9702   -1526.1868    6516.1253   -639.20877    4168.9922     312.3339     7281 
474000000   -4964.1362   -1474.5214    6465.5411   -574.50857    4064.1233    309.90928     7278 
475000000   -4965.8177   -1453.8834    6417.3107   -569.99336    4081.9276    307.59748     7280 
476000000   -4993.0734   -1471.9034    6529.0652   -552.02163    4073.1916    312.95415     7273 
477000000   -4946.4864   -1352.7285    6378.4894   -512.44434    4106.2022    305.73668     7275 
478000000    -4985.593   -1519.4788    6528.3042   -630.19332    4096.3075    312.91767     7280 
479000000   -5006.5807   -1431.3513    6520.8987   -494.10173    4069.3312     312.5627     7279 
480000000   -5050.6755   -1576.8672    6518.6158   -553.55789    4027.3662    312.45328     7277 
481000000   -5051.8579    -1514.357    6496.9616   -576.33183    4113.8327    311.41534     7277 
482000000   -4869.3779   -1389.7268      6414.47   -548.96136    4028.6125    307.46132     7281 
483000000   -4950.3881   -1403.6797    6501.8161   -552.18982    4098.8982    311.64803     7279 
484000000   -5043.4503   -1548.7774    6350.6825   -555.16229    4049.8352    304.40383     7279 
485000000   -4990.5653   -1427.3859    6461.6376   -566.29277    4129.4721    309.72218     7281 
486000000   -4918.7434   -1450.6345    6360.0373   -657.09803    4125.2069    304.85222     7280 
487000000    -5040.049   -1518.7728    6415.3066   -579.35959    4100.6358    307.50141     7280 
488000000   -4973.1813   -1381.9267    6503.7074   -610.39412    4201.6487    311.73868     7279 
489000000   -4955.0644     -1451.91    6361.7152   -541.46842    4044.6228    304.93265     7277 
490000000    -5040.902   -1580.8861      6360.13    -537.0551     3997.071    304.85667     7279 
491000000   -5049.1063   -1580.8166    6617.1733   -592.60331     4060.893    317.17738     7274 
492000000   -5012.2177   -1430.4041    6537.2568   -537.37357    4119.1871    313.34679     7276 
493000000   -4955.0279   -1428.3751    6434.1918   -551.69216     4078.345    308.40663     7279 
494000000   -4820.7104   -1341.5166    6354.2507   -611.76111     4090.955    304.57486     7278 
495000000   -4967.3572   -1450.0219     6483.223   -592.75286    4110.0882    310.75682     7281 
496000000    -4976.392   -1488.1744     6436.118   -629.91682    4118.1343    308.49896     7282 
497000000   -4942.5219   -1382.3076     6583.619   -540.77668    4100.9909    315.56905     7277 
498000000   -5040.6271   -1645.4815    6526.0316   -639.17434      4034.32    312.80874     7277 
499000000   -4974.0485    -1608.372    6388.1338   -638.75449     4004.431    306.19896     7280 
500000000   -4907.7313   -1450.5667    6565.0033   -626.18413    4083.3487    314.67675     7280 
Loop time of 23258.3 on 14 procs for 100000000 steps with 7000 atoms

Performance: 11144.428 ns/day, 0.002 hours/ns, 4299.548 timesteps/s
99.7% CPU use with 14 MPI tasks x no OpenMP threads

MPI task timing breakdown:
Section |  min time  |  avg time  |  max time  |%varavg| %total
---------------------------------------------------------------
Pair    | 5906.8     | 6888.8     | 7705       | 641.7 | 29.62
Bond    | 1065.9     | 1079.7     | 1097       |  30.7 |  4.64
Neigh   | 4230.2     | 4263.7     | 4299.1     |  32.3 | 18.33
Comm    | 5609.1     | 6481       | 7721.7     | 731.1 | 27.87
Output  | 0.029208   | 0.029385   | 0.029473   |   0.0 |  0.00
Modify  | 3704.2     | 3730       | 3747.7     |  16.6 | 16.04
Other   |            | 815.1      |            |       |  3.50

Nlocal:    500 ave 517 max 473 min
Histogram: 1 0 1 1 1 2 3 2 0 3
Nghost:    793.714 ave 1035 max 630 min
Histogram: 4 1 2 0 0 3 1 1 1 1
Neighs:    9455.29 ave 10340 max 7784 min
Histogram: 1 0 0 2 1 2 1 1 3 3

Total # of neighbors = 132374
Ave neighs/atom = 18.9106
Ave special neighs/atom = 7.44
Neighbor list builds = 6161258
Dangerous builds = 0
System init for write_restart ...
System init for write_data ...
Total wall time: 6:27:38
