LAMMPS (5 Jun 2019)
Reading restart file ...
  restart file = 5 Jun 2019, LAMMPS = 5 Jun 2019
  restoring atom style full from restart
  orthogonal box = (-500 -500 -500) to (500 500 500)
  1 by 2 by 7 MPI processor grid
  restoring pair style lj/cut from restart
  restoring bond style hybrid from restart
  restoring angle style cosine from restart
  7000 atoms
  7283 bonds
  6600 angles
Finding 1-2 1-3 1-4 neighbors ...
  special bond factors lj:   0          1          1         
  special bond factors coul: 0          0          0         
  3 = max # of 1-2 neighbors
  4 = max # of 1-3 neighbors
  8 = max # of 1-4 neighbors
  16 = max # of special neighbors
  special bonds CPU = 0.0146446 secs
  read_restart CPU = 0.159992 secs
Changing box ...
  orthogonal box = (-500 -500 -500) to (500 500 500)
  orthogonal box = (-500 -500 -500) to (500 500 500)
  orthogonal box = (-500 -500 -500) to (500 500 500)
Finding 1-2 1-3 1-4 neighbors ...
  special bond factors lj:   0          1          1         
  special bond factors coul: 0          0          0         
  3 = max # of 1-2 neighbors
  4 = max # of 1-3 neighbors
  8 = max # of 1-4 neighbors
  17064 = # of 1-3 neighbors before angle trim
  13200 = # of 1-3 neighbors after angle trim
  16 = max # of special neighbors
  special bonds CPU = 0.0012927 secs
1000 atoms in group rxnSites
Neighbor list info ...
  update every 1 steps, delay 1 steps, check yes
  max neighbors/atom: 2000, page size: 100000
  master list distance cutoff = 26.9
  ghost atom cutoff = 26.9
  binsize = 13.45, bins = 75 75 75
  2 neighbor lists, perpetual/occasional/extra = 1 1 0
  (1) pair lj/cut, perpetual
      attributes: half, newton on
      pair build: half/bin/newton
      stencil: half/bin/3d/newton
      bin: standard
  (2) fix bond/create/random, occasional, copy from (1)
      attributes: half, newton on
      pair build: copy
      stencil: none
      bin: none
Setting up Verlet run ...
  Unit style    : real
  Current step  : 400000000
  Time step     : 30
Per MPI rank memory allocation (min/avg/max) = 10.32 | 10.75 | 11.78 Mbytes
Step E_pair PotEng KinEng E_bond E_angle Temp Bonds 
400000000   -4811.3255   -1250.4799    6427.2076   -619.69659    4180.5422    308.07186     7283 
401000000   -4825.0617   -1317.2523    6458.3246   -559.42275    4067.2322    309.56337     7281 
402000000   -5004.0452   -1371.3104    6455.3139   -588.97173    4221.7065    309.41907     7283 
403000000   -4834.8985   -1311.3236    6424.9399   -618.13699    4141.7119    307.96317     7287 
404000000   -4948.5732   -1472.1047    6538.3217   -690.11343    4166.5819    313.39783     7287 
405000000   -4869.1226   -1447.6369    6434.7536   -667.73588    4089.2216    308.43356     7286 
406000000   -4893.6145   -1375.9583    6515.6397   -630.97869    4148.6349    312.31063     7283 
407000000   -4871.5345   -1327.3742    6477.6609   -622.71364    4166.8739    310.49021     7283 
408000000   -4877.3902   -1379.4035    6523.2402   -654.11289    4152.0996    312.67494     7285 
409000000   -4948.1855   -1479.7286    6395.2176   -649.40464    4117.8615     306.5385     7290 
410000000   -4870.6767   -1417.5469     6289.367   -669.83369    4122.9635    301.46482     7291 
411000000   -5014.9594   -1543.2485    6382.7416   -620.30716     4092.018     305.9405     7290 
412000000    -4892.201   -1413.8999    6517.8757   -662.05354    4140.3546     312.4178     7287 
413000000   -4973.9243   -1424.7925    6492.4137   -563.35726    4112.4891    311.19735     7279 
414000000   -5005.3429   -1498.3089    6516.7069   -574.51448    4081.5485    312.36178     7283 
415000000    -4846.154   -1387.0222    6393.2134   -585.63482    4044.7666    306.44243     7282 
416000000   -4959.6926   -1445.0287    6456.5329   -543.78648    4058.4504     309.4775     7281 
417000000   -5020.7841   -1485.8262    6515.0871    -551.7024    4086.6603    312.28414     7278 
418000000   -4977.1669   -1468.4695    6520.4007   -592.04295    4100.7403    312.53884     7279 
419000000   -4853.8892     -1394.44    6474.7991   -645.65768    4105.1069    310.35304     7282 
420000000   -4858.7704   -1365.4942    6455.6132   -618.82187    4112.0981    309.43341     7280 
421000000   -5014.2514   -1430.4569    6358.7702   -525.96009    4109.7546    304.79149     7278 
422000000   -4907.7435   -1436.1722    6531.1759   -643.61648    4115.1878    313.05532     7281 
423000000   -4996.4227   -1419.0263    6579.2188   -597.33163     4174.728    315.35813     7282 
424000000    -4873.591   -1388.1209    6546.6178   -623.03163    4108.5017    313.79549     7284 
425000000   -5020.5465   -1497.2205    6388.5728   -600.26301     4123.589       306.22     7282 
426000000   -5009.5163   -1565.4584    6407.4023   -626.92297    4070.9809    307.12254     7285 
427000000   -4886.8964   -1338.3623    6487.7737   -662.31561    4210.8496    310.97494     7285 
428000000   -4823.4153   -1253.4092    6500.8811    -600.8617    4170.8677    311.60321     7284 
429000000   -4891.8986   -1340.4618    6469.0552   -596.37828    4147.8151    310.07772     7284 
430000000   -4964.6287   -1365.4376    6332.0947   -613.17162    4212.3627    303.51286     7283 
431000000   -4895.6446   -1391.3721    6453.1954   -605.27005    4109.5426    309.31752     7283 
432000000    -4884.523   -1440.7503    6324.5694   -636.65324     4080.426    303.15216     7282 
433000000    -5006.717   -1424.7969    6497.2977   -546.41867    4128.3387    311.43145     7281 
434000000   -4965.6542   -1457.9439    6430.4186   -561.11501    4068.8253    308.22577     7283 
435000000   -5004.7835   -1497.5378    6422.5346    -636.7693     4144.015    307.84787     7284 
436000000   -4923.7385   -1281.8868    6419.3697   -571.69111    4213.5429    307.69617     7283 
437000000        -4829   -1326.1497    6573.1704   -620.57895    4123.4293    315.06822     7279 
438000000   -4949.9277    -1355.634    6513.0449   -599.53853    4193.8322    312.18626     7287 
439000000   -4865.4916   -1349.8538    6467.0455   -597.21881    4112.8566    309.98139     7285 
440000000   -5048.8834    -1515.857     6492.844   -634.96152    4167.9878    311.21798     7284 
441000000   -4864.5471   -1248.2811    6461.1481   -561.19825    4177.4642    309.69871     7282 
442000000    -4866.489   -1403.0307    6484.3213    -646.2766    4109.7349    310.80946     7285 
443000000   -4918.0335   -1519.4514    6424.7712   -647.82808    4046.4101    307.95508     7285 
444000000   -4818.4034   -1215.5385    6498.4868   -579.02514      4181.89    311.48845     7285 
445000000   -4898.4093     -1310.48    6452.6616   -606.60818    4194.5374    309.29193     7283 
446000000   -4847.9726   -1324.7333    6439.3408   -587.37835    4110.6176    308.65343     7284 
447000000   -4865.3538   -1434.8395    6341.0123   -693.02862     4123.543    303.94031     7284 
448000000   -4969.2451   -1361.2557    6439.2253   -590.91176    4198.9012     308.6479     7284 
449000000   -4982.1217   -1341.6413    6385.4746   -509.19601    4149.6765     306.0715     7280 
450000000   -4835.4647   -1308.6159    6539.7806   -639.42734    4166.2762    313.46776     7283 
451000000   -4952.1414   -1436.9575    6459.4338   -671.31351    4186.4974    309.61654     7281 
452000000   -5015.9402   -1482.8441     6437.082   -624.28011    4157.3761    308.54516     7278 
453000000   -4882.4082   -1283.5438    6492.0924   -581.72948    4180.5939    311.18195     7279 
454000000   -4940.6946   -1426.9515    6314.2784   -639.02654    4152.7697    302.65889     7278 
455000000   -4870.9654   -1303.3004    6571.3225   -573.01182    4140.6769    314.97964     7277 
456000000   -4917.1028   -1443.9343    6497.0862   -635.10101    4108.2694    311.42131     7279 
457000000   -4941.2817   -1261.7647    6375.1442   -519.97489    4199.4918    305.57633     7276 
458000000   -4819.4638    -1307.866    6562.2403   -629.04457    4140.6424    314.54431     7280 
459000000   -4986.4419    -1563.528    6345.0583   -659.63483    4082.5487    304.13424     7281 
460000000   -4949.2031   -1359.9194    6434.7381   -490.25297    4079.5367    308.43282     7277 
461000000   -4963.1719   -1438.6937    6417.8211   -612.62994    4137.1081    307.62194     7280 
462000000   -5044.0481    -1528.779    6538.4117   -576.59539    4091.8645    313.40215     7280 
463000000   -5008.9928   -1475.3342    6455.5016   -587.70788    4121.3664    309.42806     7279 
464000000   -4929.4676   -1371.8907    6477.0431   -575.80079    4133.3777     310.4606     7279 
465000000   -4818.4663   -1306.3469    6460.5155   -601.75484    4113.8742    309.66839     7280 
466000000   -4830.6647   -1271.1333    6544.8748   -588.43565     4147.967    313.71194     7279 
467000000   -4986.3728   -1456.0251       6523.3   -598.25418    4128.6018     312.6778     7280 
468000000   -4959.9252   -1358.6844    6376.2141   -575.02828     4176.269    305.62762     7281 
469000000   -4898.1266   -1288.7699    6448.3725    -607.4533    4216.8101    309.08635     7280 
470000000   -4929.6302   -1293.8423    6443.4298   -545.36153    4181.1495    308.84943     7280 
471000000   -4932.0274   -1386.6106    6389.0541    -570.4753    4115.8922    306.24307     7280 
472000000   -4984.4563   -1386.9226    6406.5516   -598.23338    4195.7671    307.08177     7278 
473000000   -4987.3566   -1501.3347    6525.7898   -688.61187    4174.6337    312.79715     7284 
474000000   -4840.7918   -1284.2748    6414.6316   -589.45737    4145.9744    307.46906     7281 
475000000   -4908.0749   -1278.0125    6433.0202   -563.05339    4193.1158    308.35048     7280 
476000000   -4845.1351   -1275.5301    6453.1872    -543.6257    4113.2307    309.31713     7278 
477000000   -4947.7298    -1375.105    6377.7394   -588.49385    4161.1187    305.70073     7280 
478000000   -4904.8163   -1405.1771    6458.4258   -640.16181     4139.801    309.56823     7279 
479000000   -4920.8865   -1393.8775    6514.8198   -608.65483    4135.6638    312.27133     7280 
480000000   -4961.9982    -1480.561    6434.2598   -621.29835    4102.7355    308.40989     7282 
481000000   -4975.1341   -1536.1141    6548.9477   -608.85988    4047.8799    313.90716     7282 
482000000   -4866.8491   -1405.5842    6412.2936   -568.08037    4029.3453      307.357     7281 
483000000   -4909.1511   -1422.2294    6537.8126   -597.25734    4084.1791    313.37343     7282 
484000000   -5049.8641   -1469.1665    6505.5585   -582.36009    4163.0577    311.82741     7282 
485000000   -4919.5694   -1435.7083    6426.3436   -673.34951    4157.2106    308.03045     7282 
486000000    -4920.438   -1360.0286    6550.9381   -568.90304    4129.3125    314.00257     7281 
487000000    -4891.368   -1533.4782    6476.8373    -640.7949    3998.6847    310.45074     7281 
488000000   -5010.3901   -1481.8714    6464.0418   -593.92638     4122.445    309.83741     7280 
489000000    -4947.245   -1422.8059     6577.828   -570.00263    4094.4417    315.29147     7280 
490000000    -5014.979    -1473.819    6459.3378   -582.92424    4124.0843    309.61194     7283 
491000000   -4968.0488   -1443.1142    6435.4895   -629.14518    4154.0797    308.46883     7284 
492000000   -5010.4626    -1438.404    6400.7142   -569.52393    4141.5825    306.80197     7277 
493000000   -4932.0793   -1429.5544    6444.7244   -520.87084    4023.3958    308.91148     7279 
494000000   -4880.0714   -1255.8367    6465.3277   -563.50743    4187.7421    309.89905     7280 
495000000   -4972.6018   -1447.3394    6462.0887   -582.96191    4108.2243     309.7438     7281 
496000000   -4895.7557   -1318.2766    6391.8537    -592.2712    4169.7503    306.37726     7279 
497000000   -4973.4386   -1436.9547    6523.9583   -606.11196    4142.5959    312.70936     7276 
498000000   -5118.0576   -1580.7466    6444.0523   -613.02287    4150.3339    308.87927     7278 
499000000   -4990.8055   -1542.5434    6533.7899   -627.71169    4075.9739    313.18061     7277 
500000000   -4997.6567   -1437.2066    6541.2952   -571.94123    4132.3913    313.54036     7278 
Loop time of 26046.4 on 14 procs for 100000000 steps with 7000 atoms

Performance: 9951.484 ns/day, 0.002 hours/ns, 3839.307 timesteps/s
99.7% CPU use with 14 MPI tasks x no OpenMP threads

MPI task timing breakdown:
Section |  min time  |  avg time  |  max time  |%varavg| %total
---------------------------------------------------------------
Pair    | 5996.8     | 7070.3     | 7841.7     | 652.5 | 27.15
Bond    | 1104.9     | 1121.4     | 1141.8     |  37.5 |  4.31
Neigh   | 4418.7     | 4450.4     | 4479.3     |  27.6 | 17.09
Comm    | 6528.6     | 7591.1     | 9340.4     | 928.8 | 29.14
Output  | 0.034349   | 0.034462   | 0.034677   |   0.0 |  0.00
Modify  | 4134       | 4185.4     | 4293.8     |  55.1 | 16.07
Other   |            | 1628       |            |       |  6.25

Nlocal:    500 ave 532 max 469 min
Histogram: 4 0 0 1 2 1 1 2 2 1
Nghost:    830.857 ave 1161 max 665 min
Histogram: 4 3 1 0 1 2 1 1 0 1
Neighs:    9606.86 ave 11009 max 7946 min
Histogram: 1 0 2 1 3 1 2 1 0 3

Total # of neighbors = 134496
Ave neighs/atom = 19.2137
Ave special neighs/atom = 7.43257
Neighbor list builds = 6161429
Dangerous builds = 0
System init for write_restart ...
System init for write_data ...
Total wall time: 7:14:07
