LAMMPS data file via write_data, version 5 Jun 2019, timestep = 400000000

7000 atoms
4 atom types
7261 bonds
3 bond types
6600 angles
2 angle types

-5.0000000000000000e+02 5.0000000000000000e+02 xlo xhi
-5.0000000000000000e+02 5.0000000000000000e+02 ylo yhi
-5.0000000000000000e+02 5.0000000000000000e+02 zlo zhi

Masses

1 1000
2 1000
3 1000
4 1000

Pair Coeffs # lj/cut

1 0.178 10
2 0.178 10
3 0.178 10
4 0.178 10

Angle Coeffs # cosine

1 2
2 2

Atoms # full

5535 159 4 0.0000000000000000e+00 -9.4501609358503330e+01 -9.7695892288770835e+01 -2.4039537838315275e+02 0 0 0
5533 159 4 0.0000000000000000e+00 -1.0253785443645346e+02 -8.0035016396966142e+01 -2.4116713010646498e+02 0 0 0
5534 159 3 0.0000000000000000e+00 -9.6913892073662808e+01 -8.8355326519028111e+01 -2.4271318105494245e+02 0 0 0
2801 81 2 0.0000000000000000e+00 -1.3453574873995325e+02 -5.0180377714443679e+01 -2.4193256446153416e+02 0 0 0
2802 81 2 0.0000000000000000e+00 -1.3136455040076032e+02 -5.9864087835156774e+01 -2.4006481838514151e+02 0 0 0
3011 87 2 0.0000000000000000e+00 -6.0288527286614411e+01 -1.2826324253665246e+02 -2.2798082501063595e+02 0 0 0
3012 87 2 0.0000000000000000e+00 -5.0226269478485818e+01 -1.2658823778965083e+02 -2.2732162300887722e+02 0 0 0
3013 87 2 0.0000000000000000e+00 -4.1317023151660692e+01 -1.2845516190915794e+02 -2.2983429839851141e+02 0 0 0
3014 87 1 0.0000000000000000e+00 -3.3345918440970308e+01 -1.2828796690473825e+02 -2.3471170719484829e+02 0 0 0
3015 87 2 0.0000000000000000e+00 -2.7130185655104881e+01 -1.2078845122026674e+02 -2.3515736589857516e+02 0 0 0
3016 87 2 0.0000000000000000e+00 -2.2997973341703133e+01 -1.2090329077534530e+02 -2.2582849950431685e+02 0 0 0
5536 159 4 0.0000000000000000e+00 -8.6182844185059153e+01 -9.3170891712196365e+01 -2.3747113576803224e+02 0 0 0
6253 179 4 0.0000000000000000e+00 -1.1801576656959188e+02 -8.0961461116679942e+01 -2.3238001685505040e+02 0 0 0
6254 179 4 0.0000000000000000e+00 -1.2414234833022228e+02 -8.5906296596033343e+01 -2.2700548261055121e+02 0 0 0
5537 159 4 0.0000000000000000e+00 -8.1023470081562962e+01 -8.4746135771926731e+01 -2.3832204048393965e+02 0 0 0
2803 81 2 0.0000000000000000e+00 -1.3165817169646675e+02 -6.6599381272666577e+01 -2.3251942403489878e+02 0 0 0
2804 81 1 0.0000000000000000e+00 -1.2799604915085638e+02 -7.2791457755040156e+01 -2.2503862956811204e+02 0 0 0
6252 179 4 0.0000000000000000e+00 -1.1671268865752144e+02 -7.1147175493340470e+01 -2.3546276374272355e+02 0 0 0
6251 179 4 0.0000000000000000e+00 -1.0863857290395788e+02 -6.6076301782077238e+01 -2.3145650476634862e+02 0 0 0
5532 159 4 0.0000000000000000e+00 -1.0322100634606954e+02 -7.5098939534259429e+01 -2.3278186020747540e+02 0 0 0
5531 159 4 0.0000000000000000e+00 -9.5275236178313406e+01 -6.9090639950814250e+01 -2.2942064289713318e+02 0 0 0
5538 159 4 0.0000000000000000e+00 -7.9562337693908077e+01 -7.4880680866559317e+01 -2.3487784224521502e+02 0 0 0
5539 159 4 0.0000000000000000e+00 -7.6697770166250351e+01 -6.6344305291763163e+01 -2.2998441781864017e+02 0 0 0
1366 40 2 0.0000000000000000e+00 -1.8746979223257955e+02 -5.6659346013060841e+01 -2.3333652858051622e+02 0 0 0
1367 40 2 0.0000000000000000e+00 -1.7883319329255352e+02 -5.9842926231896278e+01 -2.3549022333913479e+02 0 0 0
1368 40 2 0.0000000000000000e+00 -1.7217636635884904e+02 -6.0861521289313167e+01 -2.2861540513530628e+02 0 0 0
6232 179 4 0.0000000000000000e+00 -8.3892951243707529e+01 1.8580852708598179e+01 -2.2595914046453612e+02 0 0 0
6231 179 4 0.0000000000000000e+00 -7.4416233264488866e+01 1.9277416710887771e+01 -2.2593897852245243e+02 0 0 0
6256 179 4 0.0000000000000000e+00 -1.3767794501224051e+02 -7.8228495592079341e+01 -2.1498891578849359e+02 0 0 0
6255 179 3 0.0000000000000000e+00 -1.2907875658447540e+02 -8.2064361715379817e+01 -2.1893709227977823e+02 0 0 0
2805 81 2 0.0000000000000000e+00 -1.1914268824460649e+02 -7.6940693761803090e+01 -2.2324645328694044e+02 0 0 0
2807 81 2 0.0000000000000000e+00 -1.0352276153708149e+02 -8.7759867249978171e+01 -2.1702910799315708e+02 0 0 0
2806 81 2 0.0000000000000000e+00 -1.1124585735853941e+02 -8.2419198899869102e+01 -2.1919195499907030e+02 0 0 0
2808 81 2 0.0000000000000000e+00 -9.5271094284181345e+01 -8.6250123696058139e+01 -2.2366684289912908e+02 0 0 0
2809 81 2 0.0000000000000000e+00 -8.4943137802690373e+01 -8.5202001927605622e+01 -2.2364984772325985e+02 0 0 0
2810 81 2 0.0000000000000000e+00 -7.6976167915969583e+01 -8.1949631339078707e+01 -2.1924098870381107e+02 0 0 0
6263 179 4 0.0000000000000000e+00 -1.8694574036114733e+02 -7.3370070786754397e+01 -2.1711115604598012e+02 0 0 0
6262 179 3 0.0000000000000000e+00 -1.7690870227435184e+02 -7.4477651842629840e+01 -2.1696369697927037e+02 0 0 0
1370 40 2 0.0000000000000000e+00 -1.6289097770067707e+02 -6.3304336319087653e+01 -2.1441247026604387e+02 0 0 0
1369 40 1 0.0000000000000000e+00 -1.6907459187459548e+02 -6.7346340444286625e+01 -2.2199545465547320e+02 0 0 0
1371 40 2 0.0000000000000000e+00 -1.5293628671660451e+02 -6.3518974531749635e+01 -2.1555235738416965e+02 0 0 0
5540 159 4 0.0000000000000000e+00 -8.1362952308113677e+01 -6.3790997229943571e+01 -2.2148362357320067e+02 0 0 0
5435 156 4 0.0000000000000000e+00 -8.3454381920652054e+01 -7.2240200142159381e+01 -2.1322036329149455e+02 0 0 0
5437 156 4 0.0000000000000000e+00 -6.4348173383645587e+01 -7.2986466854449546e+01 -2.1855689094557994e+02 0 0 0
5436 156 3 0.0000000000000000e+00 -7.3828769298078626e+01 -7.1769836112301661e+01 -2.1579027949056567e+02 0 0 0
5438 156 4 0.0000000000000000e+00 -5.6639073658070345e+01 -7.2432513987094140e+01 -2.1234644320075208e+02 0 0 0
1372 40 2 0.0000000000000000e+00 -1.4323814624204999e+02 -5.9598677031217115e+01 -2.1409915307197434e+02 0 0 0
1373 40 2 0.0000000000000000e+00 -1.3294264055009558e+02 -6.0258514360835974e+01 -2.1428405232714721e+02 0 0 0
1374 40 2 0.0000000000000000e+00 -1.2330328646100034e+02 -5.7140685473192640e+01 -2.1330183018126843e+02 0 0 0
6250 179 4 0.0000000000000000e+00 -1.0650905760627678e+02 -6.1238164140024452e+01 -2.2246825808065685e+02 0 0 0
6249 179 4 0.0000000000000000e+00 -1.0696878890557389e+02 -5.7132609178981689e+01 -2.1313762258050639e+02 0 0 0
1613 47 2 0.0000000000000000e+00 -9.8156980004264554e+01 -5.6340180484417438e+01 -2.2252827719311165e+02 0 0 0
1614 47 1 0.0000000000000000e+00 -8.9608041367649136e+01 -5.1083115761236975e+01 -2.2133176044858411e+02 0 0 0
5542 159 4 0.0000000000000000e+00 -9.1541839116884162e+01 -5.2196369344147158e+01 -2.1116392153640018e+02 0 0 0
5541 159 3 0.0000000000000000e+00 -8.7573236482362660e+01 -6.0028368646188355e+01 -2.1516596668986855e+02 0 0 0
1611 47 2 0.0000000000000000e+00 -1.0294911716280420e+02 -3.7815277429566180e+01 -2.1742302360145419e+02 0 0 0
1612 47 2 0.0000000000000000e+00 -1.0168839711427783e+02 -4.8040496488492266e+01 -2.1751409265245309e+02 0 0 0
1615 47 2 0.0000000000000000e+00 -8.1187253945152165e+01 -4.6568647194099299e+01 -2.2373295481104449e+02 0 0 0
1616 47 2 0.0000000000000000e+00 -7.7758733331625535e+01 -3.7307245559244457e+01 -2.2089438031803525e+02 0 0 0
1617 47 2 0.0000000000000000e+00 -7.7938955330857624e+01 -3.1393256222506370e+01 -2.1238463332222273e+02 0 0 0
1323 38 2 0.0000000000000000e+00 -2.5556468810027766e+01 4.9328862070672184e+00 -2.1510714364539882e+02 0 0 0
6233 179 4 0.0000000000000000e+00 -9.2490163684598116e+01 1.5910028397674893e+01 -2.2196794809524664e+02 0 0 0
6234 179 3 0.0000000000000000e+00 -8.9141463565641189e+01 1.4934396478400448e+01 -2.1221600608712015e+02 0 0 0
3189 92 1 0.0000000000000000e+00 -8.0318704756337311e+01 1.9345727698554036e+01 -2.1679197862897078e+02 0 0 0
1324 38 2 0.0000000000000000e+00 -2.5735503990631774e+01 1.5029132411159701e+01 -2.1462474489805533e+02 0 0 0
2100 60 2 0.0000000000000000e+00 -2.3150694845956355e+01 -1.1746385988514814e+02 -2.0769854071788160e+02 0 0 0
5441 156 4 0.0000000000000000e+00 -3.6895183848862615e+01 -9.1575068231463590e+01 -2.0296435420718848e+02 0 0 0
5442 156 4 0.0000000000000000e+00 -3.1859643219737748e+01 -9.9740984776135718e+01 -2.0369688798263428e+02 0 0 0
6261 179 4 0.0000000000000000e+00 -1.7203125288800129e+02 -7.8006786097460122e+01 -2.0809151686707369e+02 0 0 0
6260 179 4 0.0000000000000000e+00 -1.6678746697219779e+02 -7.7978205978118126e+01 -2.0034677747966046e+02 0 0 0
6258 179 4 0.0000000000000000e+00 -1.4897471650250623e+02 -7.9734256922475964e+01 -1.9977496766006823e+02 0 0 0
6257 179 4 0.0000000000000000e+00 -1.4434740070653686e+02 -8.1371343583135882e+01 -2.0804011894676975e+02 0 0 0
2812 81 2 0.0000000000000000e+00 -7.6752832216405352e+01 -8.1129909157415341e+01 -2.0030862798449425e+02 0 0 0
2811 81 1 0.0000000000000000e+00 -7.4185911034733408e+01 -8.1901853781014353e+01 -2.0982115320323592e+02 0 0 0
5439 156 4 0.0000000000000000e+00 -5.2014293474093336e+01 -8.1069972574792985e+01 -2.0862041127308203e+02 0 0 0
5440 156 4 0.0000000000000000e+00 -4.4692578572328266e+01 -8.5165220330351090e+01 -2.0340897543938758e+02 0 0 0
6264 179 4 0.0000000000000000e+00 -1.9200319380110443e+02 -7.3607423250936407e+01 -2.0857877422467331e+02 0 0 0
6265 179 4 0.0000000000000000e+00 -1.9299203902273030e+02 -7.2681578198725049e+01 -1.9871186295745909e+02 0 0 0
6259 179 4 0.0000000000000000e+00 -1.5757793402661324e+02 -7.5208873696137346e+01 -1.9863729691490133e+02 0 0 0
5434 156 4 0.0000000000000000e+00 -8.7547942618934627e+01 -6.5666533002571612e+01 -2.0594459369875352e+02 0 0 0
1375 40 2 0.0000000000000000e+00 -1.1607065949867348e+02 -5.4391073050938658e+01 -2.0807197211623753e+02 0 0 0
6248 179 3 0.0000000000000000e+00 -1.0377613499251221e+02 -5.8184414828126599e+01 -2.0329497915801872e+02 0 0 0
1376 40 1 0.0000000000000000e+00 -1.1337615173419263e+02 -5.4438839244508479e+01 -1.9797004156531517e+02 0 0 0
5433 156 4 0.0000000000000000e+00 -7.8988930918678918e+01 -6.0110119184305105e+01 -2.0599435498231657e+02 0 0 0
5432 156 4 0.0000000000000000e+00 -7.5211754794852467e+01 -5.5802179270752490e+01 -1.9767678174056479e+02 0 0 0
5543 159 4 0.0000000000000000e+00 -8.9846228208351079e+01 -4.4650935126914689e+01 -2.0413076712028820e+02 0 0 0
5544 159 4 0.0000000000000000e+00 -8.2113293389421884e+01 -4.1574548761901255e+01 -1.9805980009216475e+02 0 0 0
1618 47 2 0.0000000000000000e+00 -7.9567801093942450e+01 -2.8204977781411102e+01 -2.0317143495037573e+02 0 0 0
3192 92 2 0.0000000000000000e+00 -6.9515258726838695e+01 2.1189555009174383e+00 -1.9787640078192152e+02 0 0 0
6235 179 4 0.0000000000000000e+00 -8.8634265133674788e+01 1.2801064635715653e+01 -2.0219833747627433e+02 0 0 0
3191 92 2 0.0000000000000000e+00 -7.2045788169973349e+01 1.0820824094845969e+01 -2.0199126059528766e+02 0 0 0
3190 92 2 0.0000000000000000e+00 -7.3398129599954288e+01 1.6231121041098937e+01 -2.1054015377627707e+02 0 0 0
5445 156 4 0.0000000000000000e+00 -2.3212889914913610e+01 -1.1567535377011747e+02 -1.8483457426901373e+02 0 0 0
5444 156 4 0.0000000000000000e+00 -3.0697993081733596e+01 -1.1412943017883471e+02 -1.9113465196198044e+02 0 0 0
5443 156 3 0.0000000000000000e+00 -2.9443021333842026e+01 -1.0608974311679839e+02 -1.9635549642642241e+02 0 0 0
2096 60 2 0.0000000000000000e+00 -2.6179773078919567e+01 -1.0071139505007098e+02 -1.8490566903610582e+02 0 0 0
2813 81 2 0.0000000000000000e+00 -8.1185774151629190e+01 -8.0894603207571961e+01 -1.9116681477645560e+02 0 0 0
2814 81 2 0.0000000000000000e+00 -8.6124801591015299e+01 -8.6428672052512141e+01 -1.8429006552230049e+02 0 0 0
1377 40 2 0.0000000000000000e+00 -1.1569715938164266e+02 -5.5132352787880286e+01 -1.8834480832885035e+02 0 0 0
6246 179 4 0.0000000000000000e+00 -1.0478083188717751e+02 -5.7087665240052360e+01 -1.8386586115726996e+02 0 0 0
6247 179 4 0.0000000000000000e+00 -1.0428145936182148e+02 -5.6559951659623835e+01 -1.9344484289472950e+02 0 0 0
5431 156 4 0.0000000000000000e+00 -7.3419149544281240e+01 -5.1953671836209892e+01 -1.8884411540288718e+02 0 0 0
4740 136 4 0.0000000000000000e+00 -3.5146609653331808e+01 -4.9040357945673563e+01 -1.8883449587964975e+02 0 0 0
4739 136 4 0.0000000000000000e+00 -2.5929199130985992e+01 -5.0499436760064761e+01 -1.9119429163768464e+02 0 0 0
1540 44 2 0.0000000000000000e+00 -1.2217532497728440e+02 -3.9827055760234138e+01 -1.8785644038554764e+02 0 0 0
1378 40 2 0.0000000000000000e+00 -1.2177903150705302e+02 -4.8403286635777711e+01 -1.8398420930548804e+02 0 0 0
5545 159 4 0.0000000000000000e+00 -8.0755266452178304e+01 -4.0060817663069386e+01 -1.8837369146857537e+02 0 0 0
1619 47 2 0.0000000000000000e+00 -8.0918593519772415e+01 -2.8809894451622430e+01 -1.9273970905006320e+02 0 0 0
1628 47 1 0.0000000000000000e+00 -2.4303727346652277e+01 -3.3953736726286529e+01 -1.8545210402929200e+02 0 0 0
3195 92 2 0.0000000000000000e+00 -5.3110137384766858e+01 -1.3579139818267430e+01 -1.8479912543901162e+02 0 0 0
3194 92 2 0.0000000000000000e+00 -6.1769885447639631e+01 -1.0568630653394491e+01 -1.8670226483696209e+02 0 0 0
3196 92 1 0.0000000000000000e+00 -4.3800635637300594e+01 -1.7868031623131309e+01 -1.8400497865738384e+02 0 0 0
3197 92 2 0.0000000000000000e+00 -3.4509542626028768e+01 -1.9591330888992275e+01 -1.8629501061681472e+02 0 0 0
3198 92 2 0.0000000000000000e+00 -2.5014767044729258e+01 -1.8018036089395682e+01 -1.8573723574081228e+02 0 0 0
6336 182 4 0.0000000000000000e+00 -1.1669352724897801e+02 2.6705293254918074e+00 -1.8849609853286714e+02 0 0 0
3193 92 2 0.0000000000000000e+00 -6.6052880692734675e+01 -2.7071398594270430e+00 -1.9040486946015324e+02 0 0 0
3200 92 2 0.0000000000000000e+00 -2.4679059911913640e+01 -2.4013273925729988e+00 -1.8792419341105114e+02 0 0 0
3201 92 2 0.0000000000000000e+00 -2.4152859017774926e+01 6.0319561004697517e+00 -1.9291730890163100e+02 0 0 0
6237 179 4 0.0000000000000000e+00 -9.0768247504560449e+01 9.2631835858266118e+00 -1.8420654929626491e+02 0 0 0
6236 179 4 0.0000000000000000e+00 -8.6846735541444232e+01 9.3542415977224600e+00 -1.9319316133980868e+02 0 0 0
3382 97 2 0.0000000000000000e+00 -4.3141866352289853e+01 1.0485708974444659e+01 -1.8746298633557510e+02 0 0 0
3381 97 2 0.0000000000000000e+00 -4.7413463538659890e+01 1.8670122827681659e+01 -1.8452325112400976e+02 0 0 0
3383 97 2 0.0000000000000000e+00 -3.3915786515238523e+01 1.1492279823289049e+01 -1.9122565382278103e+02 0 0 0
3202 92 2 0.0000000000000000e+00 -2.4610499027447474e+01 1.6086143723743895e+01 -1.9417835151440030e+02 0 0 0
2822 81 2 0.0000000000000000e+00 -1.1872729728619633e+02 -1.1856749019800141e+02 -1.7288048807192533e+02 0 0 0
2821 81 2 0.0000000000000000e+00 -1.0883956849715325e+02 -1.2064765113990688e+02 -1.7091270996160949e+02 0 0 0
2815 81 2 0.0000000000000000e+00 -9.2332926444067610e+01 -9.2088925293588616e+01 -1.7801322188537040e+02 0 0 0
2816 81 2 0.0000000000000000e+00 -9.1470602422501301e+01 -9.7400082654409999e+01 -1.6961688919890278e+02 0 0 0
2095 60 2 0.0000000000000000e+00 -3.3352424968614685e+01 -9.6278023680079585e+01 -1.8020625363378588e+02 0 0 0
2074 60 2 0.0000000000000000e+00 -2.2483688287398230e+01 -1.0267679668777203e+02 -1.7284947404224201e+02 0 0 0
1511 44 2 0.0000000000000000e+00 -4.8692206615839872e+01 -7.7368347685579195e+01 -1.7487804559035376e+02 0 0 0
2094 60 2 0.0000000000000000e+00 -3.1963680606201542e+01 -8.8379836837775827e+01 -1.7389181613621813e+02 0 0 0
2093 60 2 0.0000000000000000e+00 -2.3992686002251215e+01 -8.3319258635203269e+01 -1.7718811933596655e+02 0 0 0
1513 44 2 0.0000000000000000e+00 -6.3646739906050442e+01 -6.4873652306946823e+01 -1.7916734405047745e+02 0 0 0
1514 44 2 0.0000000000000000e+00 -7.3722567847607209e+01 -6.4846293772444284e+01 -1.7920225517863591e+02 0 0 0
1512 44 2 0.0000000000000000e+00 -5.4791052348729330e+01 -6.9892341472754481e+01 -1.7855406892908530e+02 0 0 0
4754 136 4 0.0000000000000000e+00 -3.3904673502982149e+01 -7.0126347428475114e+01 -1.7561970246474129e+02 0 0 0
5547 159 4 0.0000000000000000e+00 -9.2089776730035481e+01 -5.3385693251153036e+01 -1.8173957109000170e+02 0 0 0
5548 159 3 0.0000000000000000e+00 -9.8391493244020424e+01 -5.8064534778720791e+01 -1.7519281302540634e+02 0 0 0
1516 44 1 0.0000000000000000e+00 -8.8713840353431081e+01 -5.4446411012667276e+01 -1.7146853724550351e+02 0 0 0
1515 44 2 0.0000000000000000e+00 -8.2601695173417596e+01 -6.2196533564737251e+01 -1.7392135335252948e+02 0 0 0
1630 47 2 0.0000000000000000e+00 -2.1141432559985251e+01 -4.9179255147704772e+01 -1.7510804311008167e+02 0 0 0
4753 136 4 0.0000000000000000e+00 -3.3755953575167084e+01 -6.0688337822075795e+01 -1.7931094104999826e+02 0 0 0
4752 136 4 0.0000000000000000e+00 -3.2061568737564329e+01 -5.1599120652516262e+01 -1.7909286946400854e+02 0 0 0
1379 40 2 0.0000000000000000e+00 -1.2498955126316379e+02 -4.7255063517886597e+01 -1.7418261974784897e+02 0 0 0
1539 44 2 0.0000000000000000e+00 -1.2687045959092431e+02 -3.5347661686796222e+01 -1.7939978917652559e+02 0 0 0
6244 179 4 0.0000000000000000e+00 -1.1315135686157959e+02 -4.1426688666207298e+01 -1.8058840315806319e+02 0 0 0
6245 179 4 0.0000000000000000e+00 -1.0513831695491047e+02 -4.7543287988348993e+01 -1.8129785082166879e+02 0 0 0
5546 159 4 0.0000000000000000e+00 -8.6107392002729298e+01 -4.4443043720553369e+01 -1.8117998451742199e+02 0 0 0
5430 156 4 0.0000000000000000e+00 -7.3372302408767894e+01 -4.6477891562445087e+01 -1.8008330481140476e+02 0 0 0
5429 156 3 0.0000000000000000e+00 -7.3646361017745377e+01 -4.0728957960266527e+01 -1.7236881858945418e+02 0 0 0
4741 136 4 0.0000000000000000e+00 -3.8663395952282883e+01 -4.3458127820483270e+01 -1.8121638806723863e+02 0 0 0
4742 136 4 0.0000000000000000e+00 -4.2110838888349036e+01 -3.5363540741004144e+01 -1.7610198341426710e+02 0 0 0
4751 136 4 0.0000000000000000e+00 -3.0184600804869969e+01 -4.1356520652896378e+01 -1.7807701739487834e+02 0 0 0
1538 44 2 0.0000000000000000e+00 -1.2803093964369054e+02 -2.5733357791282593e+01 -1.7696734911587765e+02 0 0 0
6243 179 4 0.0000000000000000e+00 -1.1169669659521860e+02 -3.1417211050085307e+01 -1.8144281108731195e+02 0 0 0
6242 179 4 0.0000000000000000e+00 -1.0869398750588530e+02 -2.1829035135499854e+01 -1.8250346054676737e+02 0 0 0
1620 47 2 0.0000000000000000e+00 -7.9643436255036519e+01 -2.7286485293572792e+01 -1.8264216948489087e+02 0 0 0
1621 47 1 0.0000000000000000e+00 -7.2895095159448701e+01 -3.0650723924397660e+01 -1.7612421844338093e+02 0 0 0
1622 47 2 0.0000000000000000e+00 -6.7158843628491624e+01 -2.4421501542022234e+01 -1.7007923002565815e+02 0 0 0
4743 136 3 0.0000000000000000e+00 -4.4549079363446715e+01 -2.5544381550305179e+01 -1.7604923331697702e+02 0 0 0
1626 47 2 0.0000000000000000e+00 -3.5547898089799915e+01 -3.0247398688013014e+01 -1.7221544631001134e+02 0 0 0
1627 47 2 0.0000000000000000e+00 -3.2064961157621042e+01 -2.9378551802506149e+01 -1.8183122386798206e+02 0 0 0
4749 136 4 0.0000000000000000e+00 -2.8083067809028876e+01 -2.3550486742442672e+01 -1.7180748734838164e+02 0 0 0
4750 136 3 0.0000000000000000e+00 -2.5841074554783120e+01 -3.2866779861564325e+01 -1.7460526797172818e+02 0 0 0
1536 44 2 0.0000000000000000e+00 -1.3258377657108664e+02 -1.0453330784948044e+01 -1.7373217869217149e+02 0 0 0
1537 44 1 0.0000000000000000e+00 -1.2424839591624082e+02 -1.6155383625200461e+01 -1.7598687051761604e+02 0 0 0
6241 179 3 0.0000000000000000e+00 -1.1314400390574087e+02 -1.4238999679620695e+01 -1.7784921695903355e+02 0 0 0
6240 179 4 0.0000000000000000e+00 -1.0492100587833085e+02 -9.2735579549762726e+00 -1.7409300023443799e+02 0 0 0
4744 136 4 0.0000000000000000e+00 -4.3713578821591760e+01 -1.7559407193933371e+01 -1.7054189426973070e+02 0 0 0
4745 136 4 0.0000000000000000e+00 -4.4038859316393960e+01 -1.0672980607453523e+01 -1.7745189677106728e+02 0 0 0
3199 92 2 0.0000000000000000e+00 -2.1120460434813186e+01 -9.2956694410764360e+00 -1.8265480319086856e+02 0 0 0
4748 136 4 0.0000000000000000e+00 -3.3653275750621518e+01 -1.5269329687897097e+01 -1.7352664812703301e+02 0 0 0
6337 182 4 0.0000000000000000e+00 -1.1847146465408568e+02 3.1416449378761606e+00 -1.7850775346760358e+02 0 0 0
6239 179 4 0.0000000000000000e+00 -9.6501735209886547e+01 -4.2288500350986924e+00 -1.7281515998451957e+02 0 0 0
6238 179 4 0.0000000000000000e+00 -9.4069444823638278e+01 4.9419703999037123e+00 -1.7592108230031639e+02 0 0 0
6536 187 4 0.0000000000000000e+00 -7.0217728657714844e+01 -4.2064949055316685e+00 -1.6979255819592996e+02 0 0 0
4746 136 4 0.0000000000000000e+00 -4.4291403394468901e+01 -1.3532423357530166e+00 -1.7968541831292279e+02 0 0 0
4747 136 4 0.0000000000000000e+00 -3.5691573268744008e+01 -6.6874017817555425e+00 -1.7866388442133123e+02 0 0 0
3385 97 1 0.0000000000000000e+00 -2.5971245386573102e+01 1.6438917320732493e+00 -1.7818287639708981e+02 0 0 0
3386 97 2 0.0000000000000000e+00 -2.6128920640967184e+01 -3.1275664342584086e+00 -1.6964593263313682e+02 0 0 0
6338 182 4 0.0000000000000000e+00 -1.1932828474273748e+02 7.9667550544491492e+00 -1.6983361080122395e+02 0 0 0
578 17 1 0.0000000000000000e+00 -9.4372955259730475e+01 1.6243173934966176e+01 -1.7666561595059756e+02 0 0 0
1793 52 2 0.0000000000000000e+00 -6.0035807474254163e+01 1.0421069057176503e+01 -1.7048608191590361e+02 0 0 0
1792 52 2 0.0000000000000000e+00 -5.8583291832479070e+01 1.8944341109334669e+01 -1.7472365263640199e+02 0 0 0
5882 169 4 0.0000000000000000e+00 -4.3992515450389668e+01 1.7645419168182286e+01 -1.6950261983574987e+02 0 0 0
5881 169 4 0.0000000000000000e+00 -4.3656377778931216e+01 8.1288946652060634e+00 -1.7306995847520253e+02 0 0 0
3384 97 2 0.0000000000000000e+00 -2.9080173059140396e+01 9.2136686523106963e+00 -1.8316101156466428e+02 0 0 0
5143 147 4 0.0000000000000000e+00 -2.1996288072805285e+01 1.1450711896812571e+01 -1.7565323243172367e+02 0 0 0
5142 147 3 0.0000000000000000e+00 -3.0443203112685779e+01 8.5554851104455345e+00 -1.7087187483257182e+02 0 0 0
4865 139 4 0.0000000000000000e+00 -9.5664344903148347e+01 -1.3270831339546243e+02 -1.6426075418911807e+02 0 0 0
2820 81 2 0.0000000000000000e+00 -9.9413561637725124e+01 -1.2285878408447178e+02 -1.6861523025831224e+02 0 0 0
4864 139 4 0.0000000000000000e+00 -9.3896505326065110e+01 -1.2573389325699368e+02 -1.5679748590328009e+02 0 0 0
2819 81 2 0.0000000000000000e+00 -9.0132483307685263e+01 -1.2071464839620161e+02 -1.6556023868722795e+02 0 0 0
2823 81 2 0.0000000000000000e+00 -1.2437668842707443e+02 -1.1569489303589022e+02 -1.6539423760183186e+02 0 0 0
2824 81 2 0.0000000000000000e+00 -1.2644328857438954e+02 -1.1165585785739441e+02 -1.5591873135366043e+02 0 0 0
6305 181 4 0.0000000000000000e+00 -1.1261706288208275e+02 -1.0993783181144538e+02 -1.5708945574179208e+02 0 0 0
2818 81 1 0.0000000000000000e+00 -8.4795633287513922e+01 -1.1260577954427816e+02 -1.6405293739680315e+02 0 0 0
4862 139 3 0.0000000000000000e+00 -7.9082761640480257e+01 -1.1689465693345522e+02 -1.5572430805061182e+02 0 0 0
6329 181 4 0.0000000000000000e+00 -6.0620155636689603e+01 -1.0779199818086889e+02 -1.5874683878840980e+02 0 0 0
2072 60 2 0.0000000000000000e+00 -3.2941185240845499e+01 -1.0744316964224299e+02 -1.5606626258817670e+02 0 0 0
2073 60 2 0.0000000000000000e+00 -2.7464450223813643e+01 -1.0576624881707839e+02 -1.6471030068730306e+02 0 0 0
2817 81 2 0.0000000000000000e+00 -8.7104563458448951e+01 -1.0290207176453656e+02 -1.6255229875488766e+02 0 0 0
6330 181 4 0.0000000000000000e+00 -6.4261851606657189e+01 -9.8953713694700795e+01 -1.6273900230713608e+02 0 0 0
1509 44 1 0.0000000000000000e+00 -5.3780688917725136e+01 -9.1576669558308566e+01 -1.6142569463890214e+02 0 0 0
2075 60 2 0.0000000000000000e+00 -2.2143956308019355e+01 -9.3140526544493156e+01 -1.6835526292288853e+02 0 0 0
6331 181 4 0.0000000000000000e+00 -6.5009232871019250e+01 -8.9172417460611257e+01 -1.6166230397795655e+02 0 0 0
1510 44 2 0.0000000000000000e+00 -5.2140427960066177e+01 -8.4285332666853364e+01 -1.6859588336188116e+02 0 0 0
6333 181 4 0.0000000000000000e+00 -5.2527922383417831e+01 -7.7677277101781698e+01 -1.5756119736046176e+02 0 0 0
4755 136 4 0.0000000000000000e+00 -3.7076524126341795e+01 -7.6824738168987608e+01 -1.6863326071535778e+02 0 0 0
4756 136 4 0.0000000000000000e+00 -4.1806873258837719e+01 -7.8169691999327696e+01 -1.5984025526198036e+02 0 0 0
6334 181 4 0.0000000000000000e+00 -5.5942341172738921e+01 -7.2032210389318379e+01 -1.6469470480047099e+02 0 0 0
6335 181 4 0.0000000000000000e+00 -5.6050240069920761e+01 -6.4160479620803443e+01 -1.5856654829052204e+02 0 0 0
2066 60 2 0.0000000000000000e+00 -4.2725651285946242e+01 -6.2248660456066368e+01 -1.5970453795652983e+02 0 0 0
5549 159 4 0.0000000000000000e+00 -1.0003456937374396e+02 -5.8344407635906116e+01 -1.6535546824699972e+02 0 0 0
1631 47 2 0.0000000000000000e+00 -2.7146637205198132e+01 -5.3586755092909620e+01 -1.6866626985475816e+02 0 0 0
1380 40 2 0.0000000000000000e+00 -1.2599858244539283e+02 -4.1102367439204265e+01 -1.6615113155774065e+02 0 0 0
1381 40 2 0.0000000000000000e+00 -1.2446445872225394e+02 -3.9935636180166831e+01 -1.5661712464726685e+02 0 0 0
1517 44 2 0.0000000000000000e+00 -8.7274433075553063e+01 -4.6677198913489015e+01 -1.6473959953478482e+02 0 0 0
5428 156 4 0.0000000000000000e+00 -7.1437507950426834e+01 -3.3524753284201338e+01 -1.6561434943380954e+02 0 0 0
5427 156 4 0.0000000000000000e+00 -6.6107543829221669e+01 -2.9470524073416140e+01 -1.5851820835744016e+02 0 0 0
1624 47 2 0.0000000000000000e+00 -5.0086040604031496e+01 -2.8424502195354286e+01 -1.6241412496893881e+02 0 0 0
1623 47 2 0.0000000000000000e+00 -5.7778888126975041e+01 -2.6412829240713840e+01 -1.6704679015843320e+02 0 0 0
1625 47 2 0.0000000000000000e+00 -4.0007057297874049e+01 -2.9090506015631210e+01 -1.6384037809202761e+02 0 0 0
3395 97 2 0.0000000000000000e+00 -4.0141685393624286e+01 -3.4453816201111543e+01 -1.5604466372368270e+02 0 0 0
1535 44 2 0.0000000000000000e+00 -1.4044484695419686e+02 -1.0107745048716502e+01 -1.6763912225347320e+02 0 0 0
1526 44 2 0.0000000000000000e+00 -9.6770315965680979e+01 -1.1615845287030339e+01 -1.5628269777870230e+02 0 0 0
1524 44 2 0.0000000000000000e+00 -8.2374301518201463e+01 -9.4795714678737077e+00 -1.6462931676836513e+02 0 0 0
1522 44 2 0.0000000000000000e+00 -7.5678774499768679e+01 -1.9912386506931021e+01 -1.5663634907913740e+02 0 0 0
1523 44 1 0.0000000000000000e+00 -7.3105679062002835e+01 -1.1770795392939995e+01 -1.6224454085881985e+02 0 0 0
6538 187 4 0.0000000000000000e+00 -5.7944305085909711e+01 -1.1103526533689218e+01 -1.5755573567320678e+02 0 0 0
3387 97 2 0.0000000000000000e+00 -2.6363021256028389e+01 -1.0280624788276123e+01 -1.6269299738473489e+02 0 0 0
1534 44 2 0.0000000000000000e+00 -1.3313561391184749e+02 -3.6477199645083451e+00 -1.6534511708333727e+02 0 0 0
1533 44 2 0.0000000000000000e+00 -1.3110781733580592e+02 -3.6535350605271610e-01 -1.5575604982150830e+02 0 0 0
1525 44 2 0.0000000000000000e+00 -8.9049350706279640e+01 -5.7951037380943315e+00 -1.5816978856847578e+02 0 0 0
6534 187 4 0.0000000000000000e+00 -8.0176709486816137e+01 5.2286376704729678e+00 -1.5728598728861473e+02 0 0 0
6535 187 3 0.0000000000000000e+00 -7.7065228912592502e+01 -2.1017364660342621e+00 -1.6238195346764692e+02 0 0 0
1794 52 2 0.0000000000000000e+00 -6.7718362179110585e+01 5.9844727599982699e+00 -1.6588868670981739e+02 0 0 0
6537 187 4 0.0000000000000000e+00 -6.1051496255600782e+01 -5.7959773902896146e+00 -1.6532627387124779e+02 0 0 0
2914 84 2 0.0000000000000000e+00 -1.3639563811461565e+02 1.4301203454637221e+01 -1.5700670331663059e+02 0 0 0
2915 84 2 0.0000000000000000e+00 -1.2785889393945084e+02 1.1893661473652914e+01 -1.6162601857261501e+02 0 0 0
2916 84 1 0.0000000000000000e+00 -1.1905906275010003e+02 1.5614646169520013e+01 -1.5783890908548454e+02 0 0 0
6339 182 3 0.0000000000000000e+00 -1.1921201272454037e+02 1.8102949414729704e+01 -1.6823962617044899e+02 0 0 0
1795 52 2 0.0000000000000000e+00 -7.1116534633899619e+01 8.2220580487541017e+00 -1.5666793064575177e+02 0 0 0
5141 147 4 0.0000000000000000e+00 -3.6501047044983615e+01 7.9760727741696007e+00 -1.6310540906994453e+02 0 0 0
5328 153 4 0.0000000000000000e+00 -3.2497707134447559e+01 1.9113638107988951e+01 -1.6064712839325870e+02 0 0 0
6308 181 4 0.0000000000000000e+00 -1.0254104576722118e+02 -1.3418299994847607e+02 -1.4531311154175009e+02 0 0 0
6309 181 4 0.0000000000000000e+00 -9.2846500748716707e+01 -1.3583686119381156e+02 -1.4826332746257222e+02 0 0 0
2206 64 2 0.0000000000000000e+00 -5.9301420752752477e+01 -1.3434829628648586e+02 -1.4557020498444322e+02 0 0 0
3039 87 2 0.0000000000000000e+00 -2.6558126074643784e+01 -1.4264187094292552e+02 -1.4618607438436405e+02 0 0 0
6306 181 4 0.0000000000000000e+00 -1.1246113105041444e+02 -1.1792065256434910e+02 -1.5152602294859830e+02 0 0 0
6307 181 4 0.0000000000000000e+00 -1.0831378092754673e+02 -1.2596809140273544e+02 -1.4609391946965724e+02 0 0 0
4863 139 4 0.0000000000000000e+00 -8.5373671843298723e+01 -1.2415569649128405e+02 -1.5268321950293287e+02 0 0 0
6310 181 4 0.0000000000000000e+00 -8.5259119025438537e+01 -1.3009549476118715e+02 -1.4554268765428915e+02 0 0 0
2825 81 1 0.0000000000000000e+00 -1.2206357862336432e+02 -1.0821695387836118e+02 -1.4784368193065768e+02 0 0 0
5251 151 4 0.0000000000000000e+00 -1.0524666443946283e+02 -1.0359515567575409e+02 -1.5341816479757335e+02 0 0 0
4861 139 4 0.0000000000000000e+00 -7.4069340123736296e+01 -1.1030911392959155e+02 -1.5015252000843847e+02 0 0 0
4860 139 4 0.0000000000000000e+00 -6.9573681669031956e+01 -1.0733737194409851e+02 -1.4220126892094152e+02 0 0 0
6328 181 4 0.0000000000000000e+00 -5.1769503677902016e+01 -1.1096013507466368e+02 -1.5409480295831281e+02 0 0 0
1507 44 2 0.0000000000000000e+00 -5.0811870856601971e+01 -1.0351541256900578e+02 -1.4645714101956196e+02 0 0 0
6327 181 4 0.0000000000000000e+00 -4.7915003973888233e+01 -1.1472060612339429e+02 -1.4588978105365419e+02 0 0 0
2071 60 2 0.0000000000000000e+00 -3.3376925792158261e+01 -1.0579556586922848e+02 -1.4611029673710624e+02 0 0 0
6303 181 4 0.0000000000000000e+00 -1.2191025123892948e+02 -9.8523370922665038e+01 -1.4642630538001072e+02 0 0 0
6302 181 4 0.0000000000000000e+00 -1.2991826510598250e+02 -9.4085568558390278e+01 -1.4279553495662981e+02 0 0 0
6304 181 3 0.0000000000000000e+00 -1.1491058768726040e+02 -1.0128637040427776e+02 -1.5298608898268824e+02 0 0 0