LAMMPS data file via write_data, version 5 Jun 2019, timestep = 400000000

7000 atoms
4 atom types
7268 bonds
3 bond types
6600 angles
2 angle types

-5.0000000000000000e+02 5.0000000000000000e+02 xlo xhi
-5.0000000000000000e+02 5.0000000000000000e+02 ylo yhi
-5.0000000000000000e+02 5.0000000000000000e+02 zlo zhi

Masses

1 1000
2 1000
3 1000
4 1000

Pair Coeffs # lj/cut

1 0.178 10
2 0.178 10
3 0.178 10
4 0.178 10

Angle Coeffs # cosine

1 2
2 2

Atoms # full

1370 40 2 0.0000000000000000e+00 -1.0431780436778232e+02 -6.8622944999182906e+01 -2.2002722329021097e+02 0 0 0
1368 40 2 0.0000000000000000e+00 -1.1161753005769054e+02 -5.1550625879308299e+01 -2.2820478143442782e+02 0 0 0
1369 40 1 0.0000000000000000e+00 -1.0887243704123570e+02 -6.0254218071594089e+01 -2.2394487707383476e+02 0 0 0
5562 159 3 0.0000000000000000e+00 -1.0430522029401051e+02 -5.2279867986752187e+01 -2.1812782921273080e+02 0 0 0
1366 40 2 0.0000000000000000e+00 -1.2187903650727992e+02 -4.1187589364567103e+01 -2.2133054047832445e+02 0 0 0
1367 40 2 0.0000000000000000e+00 -1.1239245682789789e+02 -4.4621392286646774e+01 -2.2187150865326518e+02 0 0 0
5563 159 4 0.0000000000000000e+00 -9.6901041078771271e+01 -4.8084480826502777e+01 -2.2372793735253725e+02 0 0 0
6161 177 4 0.0000000000000000e+00 -7.6567758971599531e+01 5.9759032268557943e+00 -2.1666590824947102e+02 0 0 0
1371 40 2 0.0000000000000000e+00 -1.0247819547871559e+02 -7.1083104564513718e+01 -2.1092272765344504e+02 0 0 0
1372 40 2 0.0000000000000000e+00 -9.4606042150695316e+01 -7.2597125867805232e+01 -2.0466533993459240e+02 0 0 0
5559 159 4 0.0000000000000000e+00 -1.2846484857785077e+02 -5.4503292639238531e+01 -2.0339196670982622e+02 0 0 0
5560 159 4 0.0000000000000000e+00 -1.2049646419268919e+02 -5.6180855820376955e+01 -2.0850512660182983e+02 0 0 0
5561 159 4 0.0000000000000000e+00 -1.1096150280561652e+02 -5.4888298536189076e+01 -2.1132896837841179e+02 0 0 0
5564 159 4 0.0000000000000000e+00 -9.4900960813500618e+01 -4.2677787474311003e+01 -2.1490715570097848e+02 0 0 0
5565 159 4 0.0000000000000000e+00 -8.7872957668379499e+01 -3.7246902108513893e+01 -2.0997862840427123e+02 0 0 0
6162 177 4 0.0000000000000000e+00 -8.2910595123665772e+01 3.6262212968007637e+00 -2.0886998025283680e+02 0 0 0
1373 40 2 0.0000000000000000e+00 -8.7823602129099328e+01 -6.9256329164895149e+01 -1.9772450808572199e+02 0 0 0
1374 40 2 0.0000000000000000e+00 -7.9930401953150735e+01 -6.6962950632014199e+01 -1.9229972252911966e+02 0 0 0
5557 159 4 0.0000000000000000e+00 -1.3416576258125758e+02 -5.2132548772499895e+01 -1.9116146425179213e+02 0 0 0
5558 159 4 0.0000000000000000e+00 -1.3794203160463056e+02 -5.2665271804536985e+01 -2.0046337361969097e+02 0 0 0
6165 177 4 0.0000000000000000e+00 -1.0106349719152492e+02 -6.2389555689247951e+00 -1.9092694305184500e+02 0 0 0
6163 177 4 0.0000000000000000e+00 -8.5998342939723202e+01 1.8944484820723893e+00 -2.0007792711236749e+02 0 0 0
6164 177 3 0.0000000000000000e+00 -9.3091620840289835e+01 -2.0980471530928750e+00 -1.9501963213165706e+02 0 0 0
1788 52 2 0.0000000000000000e+00 -1.0406291594765050e+02 1.3344875677509071e+01 -1.9092441846346131e+02 0 0 0
1789 52 1 0.0000000000000000e+00 -9.5044719599354949e+01 7.8742654380015944e+00 -1.9008260346100488e+02 0 0 0
2907 84 2 0.0000000000000000e+00 -7.4262989184022700e+01 1.0342090241157898e+01 -1.9097561686091916e+02 0 0 0
2906 84 2 0.0000000000000000e+00 -8.1964455256009813e+01 1.3436567361287866e+01 -1.9665514856612654e+02 0 0 0
5898 169 3 0.0000000000000000e+00 -5.8757115878102852e+01 1.5922358879374524e+01 -1.9366511544381513e+02 0 0 0
1786 52 2 0.0000000000000000e+00 -1.1773497798987005e+02 2.4627691497355830e+01 -1.9735880920230289e+02 0 0 0
1787 52 2 0.0000000000000000e+00 -1.1186118987094821e+02 1.9371653992023173e+01 -1.9121846300235541e+02 0 0 0
5548 159 3 0.0000000000000000e+00 -8.0722965342415094e+01 -6.6883558664858398e+01 -1.7986667127187229e+02 0 0 0
5556 159 4 0.0000000000000000e+00 -1.2481593594810209e+02 -5.6450430870833749e+01 -1.8828664776735192e+02 0 0 0
5555 159 3 0.0000000000000000e+00 -1.2167499585167987e+02 -5.6842879466245627e+01 -1.7834111975997607e+02 0 0 0
5549 159 4 0.0000000000000000e+00 -8.7122167260640367e+01 -5.9350079316304438e+01 -1.7702432518617761e+02 0 0 0
1375 40 2 0.0000000000000000e+00 -7.6085940333100268e+01 -6.0783511468070266e+01 -1.8618036935527925e+02 0 0 0
1376 40 1 0.0000000000000000e+00 -7.7591494697319106e+01 -5.6086017189062986e+01 -1.7686080665318411e+02 0 0 0
1517 44 2 0.0000000000000000e+00 -5.9703185994284894e+01 -3.7318908559315553e+01 -1.8081929348721533e+02 0 0 0
2920 84 2 0.0000000000000000e+00 -6.1242060569124853e+01 -1.5745670844287998e+01 -1.8278171826005382e+02 0 0 0
6166 177 4 0.0000000000000000e+00 -1.0894159014184891e+02 -5.9902666430950076e+00 -1.8460624772668848e+02 0 0 0
1790 52 2 0.0000000000000000e+00 -9.1164312267622236e+01 4.5101281372469693e+00 -1.8111113029262859e+02 0 0 0
2908 84 2 0.0000000000000000e+00 -6.4553688548160451e+01 9.6422498116941728e+00 -1.8616558405276865e+02 0 0 0
5897 169 4 0.0000000000000000e+00 -6.5624119408783486e+01 1.9864072750511347e+01 -1.8774655371758132e+02 0 0 0
5896 169 4 0.0000000000000000e+00 -6.8248552422611695e+01 2.6889289681477649e+01 -1.8116157311022187e+02 0 0 0
5547 159 4 0.0000000000000000e+00 -8.2685753547886492e+01 -7.4000108838457649e+01 -1.7330408993516960e+02 0 0 0
5546 159 4 0.0000000000000000e+00 -7.5405495670707907e+01 -6.8601460492614009e+01 -1.6837175833663332e+02 0 0 0
5554 159 4 0.0000000000000000e+00 -1.2237908476449358e+02 -6.1429239252343969e+01 -1.6926651383328172e+02 0 0 0
5553 159 4 0.0000000000000000e+00 -1.1631840483405882e+02 -5.3318709914819344e+01 -1.6751685010260553e+02 0 0 0
5550 159 4 0.0000000000000000e+00 -9.4183272603738999e+01 -5.3192339939882764e+01 -1.7362667091539544e+02 0 0 0
5545 159 4 0.0000000000000000e+00 -7.1848999932734088e+01 -6.0049679844116582e+01 -1.6619704122765734e+02 0 0 0
5544 159 4 0.0000000000000000e+00 -6.4797037235023936e+01 -5.2230512156627960e+01 -1.6509455223653609e+02 0 0 0
5552 159 4 0.0000000000000000e+00 -1.0702862130629973e+02 -5.0555718272384375e+01 -1.6512695686938631e+02 0 0 0
5551 159 4 0.0000000000000000e+00 -1.0136975175321909e+02 -4.6224991890941368e+01 -1.7185734046498979e+02 0 0 0
1377 40 2 0.0000000000000000e+00 -7.7516745478683760e+01 -4.9973219065039849e+01 -1.6881391075622781e+02 0 0 0
1519 44 2 0.0000000000000000e+00 -7.2848983175422219e+01 -3.7900062733314059e+01 -1.6848075954875182e+02 0 0 0
1520 44 2 0.0000000000000000e+00 -8.1653134582925503e+01 -4.0662950432070517e+01 -1.6523233944662934e+02 0 0 0
1518 44 2 0.0000000000000000e+00 -6.5918543523822080e+01 -3.4330408035007437e+01 -1.7360148860076842e+02 0 0 0
1526 44 2 0.0000000000000000e+00 -1.1143979509526866e+02 -1.3693915434836455e+01 -1.6652851749913174e+02 0 0 0
1527 44 2 0.0000000000000000e+00 -1.0251320024969860e+02 -1.5639644093494072e+01 -1.7040510288228870e+02 0 0 0
1528 44 2 0.0000000000000000e+00 -9.3381569615642363e+01 -1.4616564320282352e+01 -1.6622671996550298e+02 0 0 0
2921 84 2 0.0000000000000000e+00 -6.4128585358226601e+01 -1.4899182302393182e+01 -1.7284861231025894e+02 0 0 0
2922 84 2 0.0000000000000000e+00 -6.7325956586142709e+01 -1.5263630190401594e+01 -1.6328782849106017e+02 0 0 0
6167 177 4 0.0000000000000000e+00 -1.1421162611404932e+02 -7.8421759027496112e+00 -1.7568474977693069e+02 0 0 0
6168 177 4 0.0000000000000000e+00 -1.0944490791671021e+02 -1.4519898755950631e+00 -1.6947217733297327e+02 0 0 0
6861 197 4 0.0000000000000000e+00 -1.8949739396300515e+02 6.3313285864994677e+00 -1.6735072072348186e+02 0 0 0
1792 52 2 0.0000000000000000e+00 -1.0232844014724924e+02 1.5599674245432009e+01 -1.7295038499227434e+02 0 0 0
1791 52 2 0.0000000000000000e+00 -9.6121599253067117e+01 8.5698184756592326e+00 -1.7290476005520557e+02 0 0 0
6174 177 4 0.0000000000000000e+00 -7.5873281088017507e+01 1.2039086599785870e+01 -1.6736624981457007e+02 0 0 0
6175 177 4 0.0000000000000000e+00 -6.8319669915615478e+01 1.0378641403695189e+01 -1.7391752066401730e+02 0 0 0
6176 177 4 0.0000000000000000e+00 -5.8810949793880134e+01 1.2845647473276678e+01 -1.7268911282514330e+02 0 0 0
1793 52 2 0.0000000000000000e+00 -1.0799028874575659e+02 2.3346011650917614e+01 -1.6814759619650161e+02 0 0 0
6525 187 4 0.0000000000000000e+00 -9.0287404447795808e+01 -7.0023079873145676e+01 -1.5973021160844851e+02 0 0 0
6526 187 4 0.0000000000000000e+00 -8.1859644260496793e+01 -7.4155968202458865e+01 -1.5628052868031676e+02 0 0 0
6527 187 4 0.0000000000000000e+00 -7.1689993823510207e+01 -7.5584458173066977e+01 -1.5698774913928523e+02 0 0 0
6528 187 3 0.0000000000000000e+00 -6.2847940408627238e+01 -7.4087226829167122e+01 -1.5259787450677959e+02 0 0 0
1750 50 2 0.0000000000000000e+00 -1.2608717751603962e+02 -6.2886162178250551e+01 -1.5814301041253836e+02 0 0 0
1749 50 2 0.0000000000000000e+00 -1.2548383823402277e+02 -5.7479692859923396e+01 -1.4978771873595991e+02 0 0 0
6524 187 4 0.0000000000000000e+00 -9.0037943776836471e+01 -6.0206562649369694e+01 -1.5765422965010575e+02 0 0 0
6523 187 4 0.0000000000000000e+00 -9.3363448832575287e+01 -5.2737410858761379e+01 -1.5203003790362476e+02 0 0 0
1378 40 2 0.0000000000000000e+00 -7.8284530165298335e+01 -5.2802131085803417e+01 -1.5910624391663760e+02 0 0 0
1379 40 2 0.0000000000000000e+00 -8.1222424082487308e+01 -5.6286170036238346e+01 -1.4977713561156747e+02 0 0 0
1537 44 1 0.0000000000000000e+00 -6.6732334885642018e+01 -6.3347571159274892e+01 -1.5490168743189579e+02 0 0 0
1536 44 2 0.0000000000000000e+00 -6.7040587090691545e+01 -5.3717970489812352e+01 -1.5319329948799057e+02 0 0 0
6520 187 4 0.0000000000000000e+00 -1.1878391512764780e+02 -4.0228656972742229e+01 -1.5830395877335582e+02 0 0 0
6521 187 3 0.0000000000000000e+00 -1.1111097982503574e+02 -4.6553917311518255e+01 -1.5667196544280796e+02 0 0 0
6522 187 4 0.0000000000000000e+00 -1.0226346729199402e+02 -5.0074957016729527e+01 -1.5392029564942868e+02 0 0 0
1521 44 2 0.0000000000000000e+00 -9.0556387715109651e+01 -3.9159400425295360e+01 -1.6007629665063325e+02 0 0 0
1535 44 2 0.0000000000000000e+00 -6.9978858957774705e+01 -4.4247750862427843e+01 -1.5442389248703060e+02 0 0 0
6519 187 4 0.0000000000000000e+00 -1.2276518520262803e+02 -3.1304966177565657e+01 -1.5643408242491878e+02 0 0 0
6518 187 4 0.0000000000000000e+00 -1.1877953577727179e+02 -2.4412443641717005e+01 -1.5037187332264568e+02 0 0 0
1523 44 1 0.0000000000000000e+00 -1.0829997625868256e+02 -3.7177376007769119e+01 -1.5127547169935448e+02 0 0 0
1524 44 2 0.0000000000000000e+00 -1.0875300126372949e+02 -2.8341699144688068e+01 -1.5616182063145473e+02 0 0 0
1522 44 2 0.0000000000000000e+00 -9.8439147341009416e+01 -3.7044283327711568e+01 -1.5411927353134286e+02 0 0 0
1534 44 2 0.0000000000000000e+00 -6.8350912256350668e+01 -3.5433731708058126e+01 -1.5119183132433074e+02 0 0 0
1525 44 2 0.0000000000000000e+00 -1.1192583020134364e+02 -1.9772432746393211e+01 -1.5927933615129263e+02 0 0 0
1529 44 2 0.0000000000000000e+00 -8.7831278002577335e+01 -1.3542367908120942e+01 -1.5839710297182830e+02 0 0 0
3921 113 4 0.0000000000000000e+00 -7.9474214496579293e+01 -2.2742632099409466e+01 -1.5245498387651037e+02 0 0 0
6169 177 4 0.0000000000000000e+00 -1.0436122353868130e+02 3.0308417203508582e+00 -1.6170724838751025e+02 0 0 0
6516 187 4 0.0000000000000000e+00 -1.0743024169120528e+02 -8.2143663831830267e+00 -1.5029057409870430e+02 0 0 0
6171 177 3 0.0000000000000000e+00 -9.0881313076508462e+01 -1.1060632647997024e+00 -1.5163525048225839e+02 0 0 0
6172 177 4 0.0000000000000000e+00 -8.2577208830148052e+01 -2.9266858318030171e+00 -1.5719909420201427e+02 0 0 0
2923 84 1 0.0000000000000000e+00 -6.4294197407014011e+01 -7.0905056957121664e+00 -1.5999680086773142e+02 0 0 0
2924 84 2 0.0000000000000000e+00 -6.3631338622078019e+01 5.9397358808036682e-01 -1.5362060438016476e+02 0 0 0
6862 197 4 0.0000000000000000e+00 -1.8754339160438207e+02 1.2208486889979584e+01 -1.5973840173169688e+02 0 0 0
6863 197 4 0.0000000000000000e+00 -1.7833824081426340e+02 1.5575060518835588e+01 -1.6237729835718662e+02 0 0 0
6864 197 3 0.0000000000000000e+00 -1.7066251734161364e+02 1.1736532648636581e+01 -1.5727390821468026e+02 0 0 0
6865 197 4 0.0000000000000000e+00 -1.6543487550130516e+02 8.2935773758159446e+00 -1.4961216572214872e+02 0 0 0
2940 84 2 0.0000000000000000e+00 -1.3380806373990566e+02 8.6921772105218338e+00 -1.5571271571802839e+02 0 0 0
2939 84 2 0.0000000000000000e+00 -1.2630524773044731e+02 1.2582810617469789e+01 -1.5071273656769529e+02 0 0 0
6170 177 4 0.0000000000000000e+00 -9.7536373887780641e+01 5.7659689706639226e+00 -1.5535354605906005e+02 0 0 0
6173 177 4 0.0000000000000000e+00 -7.9296752685231894e+01 4.1120940942116819e+00 -1.6235685607631248e+02 0 0 0
1540 44 2 0.0000000000000000e+00 -6.4658101902751156e+01 -8.3287623925079018e+01 -1.4095162806317501e+02 0 0 0
1539 44 2 0.0000000000000000e+00 -7.0895492025607879e+01 -7.7748554457525501e+01 -1.4643612570673071e+02 0 0 0
1538 44 2 0.0000000000000000e+00 -7.0829763764233675e+01 -6.7915928103859073e+01 -1.4690171105733447e+02 0 0 0
6529 187 4 0.0000000000000000e+00 -5.9022388094620752e+01 -6.7290246114419773e+01 -1.4825378612937791e+02 0 0 0
1748 50 2 0.0000000000000000e+00 -1.2331517163442258e+02 -5.4057673722228650e+01 -1.4084938948070308e+02 0 0 0
4831 139 4 0.0000000000000000e+00 -1.2445719937433449e+02 -6.4261609315880804e+01 -1.3970949790398964e+02 0 0 0
1380 40 2 0.0000000000000000e+00 -7.6258997502245805e+01 -5.8153140519477077e+01 -1.4155646889613004e+02 0 0 0
1746 50 2 0.0000000000000000e+00 -1.1189967976272568e+02 -3.9767723954916335e+01 -1.3803239153985652e+02 0 0 0
4835 139 4 0.0000000000000000e+00 -9.8235521935010482e+01 -4.0124165362981799e+01 -1.3753894631436035e+02 0 0 0
4836 139 4 0.0000000000000000e+00 -9.3368009400442332e+01 -4.0519802375498948e+01 -1.4655883504986897e+02 0 0 0
4837 139 4 0.0000000000000000e+00 -8.3855503713414052e+01 -4.4803383503018097e+01 -1.4644341474380309e+02 0 0 0
4838 139 4 0.0000000000000000e+00 -7.6118177220038589e+01 -4.7620661660328565e+01 -1.4111560189298646e+02 0 0 0
1745 50 2 0.0000000000000000e+00 -1.0963371366268851e+02 -3.0693180756599610e+01 -1.3589881564743982e+02 0 0 0
1533 44 2 0.0000000000000000e+00 -7.5969849475986649e+01 -3.4378483363996210e+01 -1.4558062817764358e+02 0 0 0
1532 44 2 0.0000000000000000e+00 -7.8341164838125323e+01 -2.6418150078259785e+01 -1.4087058605541492e+02 0 0 0
6534 187 4 0.0000000000000000e+00 -6.4209782554234792e+01 -3.3205625311381837e+01 -1.4179242149451161e+02 0 0 0
6517 187 4 0.0000000000000000e+00 -1.1230808810250016e+02 -1.6646561793001361e+01 -1.4832651786292223e+02 0 0 0
1530 44 1 0.0000000000000000e+00 -9.0010169696050170e+01 -1.2446717010093371e+01 -1.4892888145760460e+02 0 0 0
1531 44 2 0.0000000000000000e+00 -8.5314042948357312e+01 -1.9030519309563878e+01 -1.4267417909876301e+02 0 0 0
3923 113 4 0.0000000000000000e+00 -7.6592553094958689e+01 -1.2490188432623082e+01 -1.3817253642419647e+02 0 0 0
3922 113 4 0.0000000000000000e+00 -7.4686520212900163e+01 -1.5333226884422571e+01 -1.4765502489154650e+02 0 0 0
6535 187 3 0.0000000000000000e+00 -6.3478717761236403e+01 -2.3684427674878854e+01 -1.4140369717738434e+02 0 0 0
6515 187 4 0.0000000000000000e+00 -1.1047653846706055e+02 -4.3937711157425099e+00 -1.4178597596687558e+02 0 0 0
2925 84 2 0.0000000000000000e+00 -6.7640075983296768e+01 -3.6163131487465261e-01 -1.4471597295672979e+02 0 0 0
6866 197 4 0.0000000000000000e+00 -1.5706731830892571e+02 7.2954775293213485e+00 -1.4525632625413772e+02 0 0 0
6867 197 4 0.0000000000000000e+00 -1.5666082785704734e+02 1.0481866951072190e+01 -1.3633167712483294e+02 0 0 0
2938 84 2 0.0000000000000000e+00 -1.1985116750093719e+02 1.0937081824674523e+01 -1.4371359811126695e+02 0 0 0
2926 84 2 0.0000000000000000e+00 -7.0470745598544568e+01 7.4349345413346590e+00 -1.3876111841626943e+02 0 0 0
6195 177 4 0.0000000000000000e+00 -5.9060013510286588e+01 -1.1693522589554672e+02 -1.3140258933600012e+02 0 0 0
4832 139 4 0.0000000000000000e+00 -1.1632950225008798e+02 -6.1719472952941288e+01 -1.3443620876749833e+02 0 0 0
4833 139 4 0.0000000000000000e+00 -1.0776323517878184e+02 -5.6792883315992512e+01 -1.3376095240987635e+02 0 0 0
5528 158 4 0.0000000000000000e+00 -9.9122055540555920e+01 -5.2505532159338529e+01 -1.2814120208045878e+02 0 0 0
1381 40 2 0.0000000000000000e+00 -7.9029964514411134e+01 -6.1148127645202699e+01 -1.3270121070928715e+02 0 0 0
1382 40 2 0.0000000000000000e+00 -8.5394482197246006e+01 -5.6684254891884002e+01 -1.2665010475365172e+02 0 0 0
1747 50 1 0.0000000000000000e+00 -1.1646279772204609e+02 -4.8396054069704221e+01 -1.3521068651259517e+02 0 0 0
4834 139 3 0.0000000000000000e+00 -1.0532788852606899e+02 -4.7443968321265451e+01 -1.3444344012280132e+02 0 0 0
5529 158 4 0.0000000000000000e+00 -8.9986116006117513e+01 -4.8129213105393390e+01 -1.2731279057383017e+02 0 0 0
2226 64 2 0.0000000000000000e+00 -9.0042350710534777e+01 -3.7749671167211552e+01 -1.2633800960971442e+02 0 0 0
5530 158 4 0.0000000000000000e+00 -7.9237626350410409e+01 -4.7012645563789704e+01 -1.2772080241925080e+02 0 0 0
4840 139 4 0.0000000000000000e+00 -6.4070777266433538e+01 -4.5016047793522773e+01 -1.2641687982998968e+02 0 0 0
4839 139 4 0.0000000000000000e+00 -6.9530401395089513e+01 -4.9530756168313765e+01 -1.3382070150958469e+02 0 0 0
2227 64 2 0.0000000000000000e+00 -8.2458416974039366e+01 -3.6862091093914792e+01 -1.3283990680757825e+02 0 0 0
2228 64 2 0.0000000000000000e+00 -7.2421419636178854e+01 -3.4812838554425255e+01 -1.3184813256795010e+02 0 0 0
3925 113 4 0.0000000000000000e+00 -7.9551339751021189e+01 -2.8588683066466103e+01 -1.2818814894806513e+02 0 0 0
2229 64 2 0.0000000000000000e+00 -6.3336244408263219e+01 -3.1157873555074545e+01 -1.3259626651599851e+02 0 0 0
3926 113 4 0.0000000000000000e+00 -7.1484717673449055e+01 -2.9786374457224369e+01 -1.2342905290215357e+02 0 0 0
6511 187 4 0.0000000000000000e+00 -1.2915298435960608e+02 -2.2707983850431361e+01 -1.2234636064257892e+02 0 0 0
1744 50 2 0.0000000000000000e+00 -1.0749493062620529e+02 -2.2153933561220462e+01 -1.3191644070835065e+02 0 0 0
1743 50 2 0.0000000000000000e+00 -1.0685495697753834e+02 -1.2462321988272262e+01 -1.2873232476192686e+02 0 0 0
1915 55 1 0.0000000000000000e+00 -9.0410337320744361e+01 -1.7088480945555357e+01 -1.3254242695859475e+02 0 0 0
1916 55 2 0.0000000000000000e+00 -9.8029532176708571e+01 -2.0555417255922439e+01 -1.2773220945446730e+02 0 0 0
3924 113 3 0.0000000000000000e+00 -8.0000588610638076e+01 -2.0281222234470995e+01 -1.3314217130871216e+02 0 0 0
6537 187 4 0.0000000000000000e+00 -6.7486607443089866e+01 -1.1350044964646932e+01 -1.2571015210821098e+02 0 0 0
6536 187 4 0.0000000000000000e+00 -6.6711337289276230e+01 -1.8528706893003037e+01 -1.3278107259142979e+02 0 0 0
6513 187 4 0.0000000000000000e+00 -1.1801141598074969e+02 -7.4905280091558097e+00 -1.2371024343589086e+02 0 0 0
6514 187 3 0.0000000000000000e+00 -1.1400966938629236e+02 -2.5201584511615525e+00 -1.3175368747714109e+02 0 0 0
2934 84 2 0.0000000000000000e+00 -9.3391182222613040e+01 1.2067627146691964e+00 -1.2443705511386896e+02 0 0 0
1914 55 2 0.0000000000000000e+00 -8.5571409543610685e+01 -9.0366505305276608e+00 -1.3100270593205809e+02 0 0 0
1913 55 2 0.0000000000000000e+00 -8.1287769318664601e+01 -3.5964020574103345e-01 -1.2953793874017626e+02 0 0 0
1912 55 2 0.0000000000000000e+00 -7.4249171246533592e+01 -7.7450056452327987e-01 -1.2262985006396799e+02 0 0 0
6868 197 4 0.0000000000000000e+00 -1.5840411230663705e+02 1.5664807570174677e+01 -1.2805756068628753e+02 0 0 0
3325 95 2 0.0000000000000000e+00 -1.4107662132217206e+02 4.3515214820625170e+00 -1.2827257826274581e+02 0 0 0
3324 95 2 0.0000000000000000e+00 -1.4873079693075294e+02 1.0596084545971609e+01 -1.2901422379261399e+02 0 0 0
2937 84 1 0.0000000000000000e+00 -1.1411519479023916e+02 8.1237824774197573e+00 -1.3547081061621546e+02 0 0 0
2936 84 2 0.0000000000000000e+00 -1.0577637648013618e+02 6.2345285523421525e+00 -1.3121430374737164e+02 0 0 0
2935 84 2 0.0000000000000000e+00 -9.6314325499025387e+01 7.3502802406184609e+00 -1.3220266528599873e+02 0 0 0
2927 84 2 0.0000000000000000e+00 -7.2131843908068006e+01 7.9783423145464507e+00 -1.2926173770469023e+02 0 0 0
2928 84 2 0.0000000000000000e+00 -6.7073964575472232e+01 1.3729947655899990e+01 -1.2251177117959125e+02 0 0 0
3323 95 2 0.0000000000000000e+00 -1.4874645064725229e+02 1.7499412489067762e+01 -1.2291829348309921e+02 0 0 0
5488 157 4 0.0000000000000000e+00 -1.1222331285251947e+02 2.8683992547790574e+01 -1.2470364178677025e+02 0 0 0
5526 158 4 0.0000000000000000e+00 -1.0653945197376706e+02 -5.5993633581431197e+01 -1.1296866356257459e+02 0 0 0
5527 158 3 0.0000000000000000e+00 -1.0271564158896449e+02 -5.9502144251266287e+01 -1.2118987167994759e+02 0 0 0
1383 40 1 0.0000000000000000e+00 -9.2136798906276539e+01 -5.5816457876539964e+01 -1.1992392057432366e+02 0 0 0
1384 40 2 0.0000000000000000e+00 -9.3909463718944579e+01 -5.2717556734810067e+01 -1.1042906784724350e+02 0 0 0
3394 97 2 0.0000000000000000e+00 -7.7774313965258585e+01 -5.2353504069398689e+01 -1.1151658621285515e+02 0 0 0
2224 64 2 0.0000000000000000e+00 -7.8364114206150134e+01 -4.0807111283346039e+01 -1.1121521428989526e+02 0 0 0
2225 64 2 0.0000000000000000e+00 -8.4526657560081901e+01 -4.1159543308829257e+01 -1.1867576904308063e+02 0 0 0
3393 97 2 0.0000000000000000e+00 -7.0246965810479040e+01 -4.8331823298776861e+01 -1.1644141282957095e+02 0 0 0
3392 97 1 0.0000000000000000e+00 -6.3832415488186534e+01 -4.1484951388064481e+01 -1.1397150720741416e+02 0 0 0
4841 139 3 0.0000000000000000e+00 -5.8436456959005746e+01 -4.8840309105902207e+01 -1.1955757306533849e+02 0 0 0
3741 107 4 0.0000000000000000e+00 -1.7277256588203755e+02 -2.4775553542629325e+01 -1.1054405945923827e+02 0 0 0
3739 107 4 0.0000000000000000e+00 -1.6421926849160852e+02 -3.5960976026518892e+01 -1.1421741529210041e+02 0 0 0
3740 107 4 0.0000000000000000e+00 -1.6423343162141001e+02 -2.6389930658853554e+01 -1.1477345233065151e+02 0 0 0
1920 55 2 0.0000000000000000e+00 -1.2981320889260422e+02 -2.7749227072005219e+01 -1.1357324368354202e+02 0 0 0
1919 55 2 0.0000000000000000e+00 -1.2017656901006833e+02 -3.1668551979113044e+01 -1.1318579359443159e+02 0 0 0
1918 55 2 0.0000000000000000e+00 -1.1169931623457653e+02 -2.9513442381099196e+01 -1.1782539288454929e+02 0 0 0
3927 113 4 0.0000000000000000e+00 -6.7190614383955236e+01 -2.5363436722223330e+01 -1.1612564562453326e+02 0 0 0
3391 97 2 0.0000000000000000e+00 -5.8032591949464134e+01 -3.4250746609644558e+01 -1.0956725596021793e+02 0 0 0
6874 197 4 0.0000000000000000e+00 -1.2796886910703383e+02 -1.0328348995792645e+01 -1.1130076497351119e+02 0 0 0
6512 187 4 0.0000000000000000e+00 -1.2197874954581387e+02 -1.6107416282090075e+01 -1.2120591580955937e+02 0 0 0
1917 55 2 0.0000000000000000e+00 -1.0483443708712623e+02 -2.2613419918829191e+01 -1.2106560498650380e+02 0 0 0
6873 197 4 0.0000000000000000e+00 -1.3410329335574173e+02 -2.5334009157989299e+00 -1.0913779045592125e+02 0 0 0
1740 50 1 0.0000000000000000e+00 -1.1680818915513018e+02 -2.7021395597631011e+00 -1.1026422545315138e+02 0 0 0
1742 50 2 0.0000000000000000e+00 -1.0749438598067005e+02 -6.2989473785983980e+00 -1.2065797624032018e+02 0 0 0
1741 50 2 0.0000000000000000e+00 -1.1109238980209805e+02 1.0644423149673303e+00 -1.1573546868576166e+02 0 0 0
2933 84 2 0.0000000000000000e+00 -9.3271934540099224e+01 -4.9012747381155908e-01 -1.1489696894853469e+02 0 0 0
1911 55 2 0.0000000000000000e+00 -7.3804641672513938e+01 -7.4417930905953291e+00 -1.1560285704528262e+02 0 0 0
6538 187 4 0.0000000000000000e+00 -6.1808096458733509e+01 -6.4819022416370995e+00 -1.1837494164412139e+02 0 0 0
6539 187 4 0.0000000000000000e+00 -6.0627336172189864e+01 1.0995849274663858e+00 -1.1167467955566147e+02 0 0 0
6869 197 4 0.0000000000000000e+00 -1.5712785449804440e+02 1.6474108614497023e+01 -1.1829232555886750e+02 0 0 0
6871 197 3 0.0000000000000000e+00 -1.4179906243681370e+02 1.3564039186038187e+01 -1.1391192331818169e+02 0 0 0
3676 106 4 0.0000000000000000e+00 -1.0155039470830965e+02 5.6515929419861326e+00 -1.1722888864793626e+02 0 0 0
5486 157 4 0.0000000000000000e+00 -1.0920099704556141e+02 1.4991130884779320e+01 -1.1095163233564159e+02 0 0 0
2932 84 2 0.0000000000000000e+00 -8.7787720567178667e+01 5.9075783677266429e+00 -1.0922243175418338e+02 0 0 0
211 7 2 0.0000000000000000e+00 -7.8749587787766430e+01 8.5047643083829314e+00 -1.2022447533935016e+02 0 0 0
212 7 2 0.0000000000000000e+00 -7.7501123465149178e+01 7.0358257478529085e+00 -1.1093607750026466e+02 0 0 0
6870 197 4 0.0000000000000000e+00 -1.4983001183759546e+02 1.9233944768850357e+01 -1.1209937832578038e+02 0 0 0
3322 95 1 0.0000000000000000e+00 -1.4379221072033542e+02 2.4124509565490978e+01 -1.1747946670564696e+02 0 0 0
5487 157 4 0.0000000000000000e+00 -1.0834479615310813e+02 2.1034547748668807e+01 -1.1892422596269053e+02 0 0 0
2929 84 2 0.0000000000000000e+00 -6.8088457148884004e+01 1.8702150514875598e+01 -1.1311602494929164e+02 0 0 0
2239 64 2 0.0000000000000000e+00 -6.2416613950870094e+01 2.7034542609840134e+01 -1.1760728282290923e+02 0 0 0
2216 64 1 0.0000000000000000e+00 -6.1295539926744198e+01 -1.0949139116081273e+02 -9.7128895254179113e+01 0 0 0
2217 64 2 0.0000000000000000e+00 -6.6467187002256836e+01 -1.0105454247268763e+02 -9.6417965291151006e+01 0 0 0
1925 55 2 0.0000000000000000e+00 -1.2603926196103366e+02 -5.2027557535230045e+01 -1.0002465435672669e+02 0 0 0
5525 158 4 0.0000000000000000e+00 -1.1007182325658231e+02 -5.6450579531634318e+01 -1.0360783792463019e+02 0 0 0
1386 40 2 0.0000000000000000e+00 -9.0345005361688038e+01 -5.8661218743567375e+01 -9.5298246882461541e+01 0 0 0
1385 40 2 0.0000000000000000e+00 -9.7947268570666807e+01 -5.5300068294036080e+01 -1.0166452690738436e+02 0 0 0
3395 97 2 0.0000000000000000e+00 -8.2959423251431815e+01 -5.3297492964635211e+01 -1.0294072289310409e+02 0 0 0
2222 64 2 0.0000000000000000e+00 -7.1479790473913056e+01 -5.4400947293673759e+01 -1.0003785329626970e+02 0 0 0
2221 64 2 0.0000000000000000e+00 -7.1540684770068609e+01 -6.4178528306675332e+01 -9.6448138470968459e+01 0 0 0
3738 107 4 0.0000000000000000e+00 -1.6514087500101655e+02 -4.1208636450001819e+01 -1.0595714710228090e+02 0 0 0
3737 107 4 0.0000000000000000e+00 -1.6289397351564457e+02 -4.4251424049046854e+01 -9.6905192043042916e+01 0 0 0
3736 107 4 0.0000000000000000e+00 -1.5523511921976191e+02 -3.8145781467959871e+01 -9.5261216830440944e+01 0 0 0
1924 55 2 0.0000000000000000e+00 -1.2798576748789300e+02 -4.2037435424918790e+01 -9.8972018450368395e+01 0 0 0
1923 55 2 0.0000000000000000e+00 -1.3747128521587203e+02 -3.9871436517178630e+01 -9.7817140802981413e+01 0 0 0
3932 113 4 0.0000000000000000e+00 -8.8505472263925981e+01 -4.1466826458207507e+01 -9.9897234801397715e+01 0 0 0
2223 64 1 0.0000000000000000e+00 -7.3126140526205518e+01 -4.4717441464498002e+01 -1.0345513855243541e+02 0 0 0
3931 113 3 0.0000000000000000e+00 -8.0071013443060650e+01 -3.8310870527262090e+01 -9.7490299587807286e+01 0 0 0
1725 50 2 0.0000000000000000e+00 -1.7824280999784091e+02 -3.4772417633872863e+01 -9.7295880730739825e+01 0 0 0
1726 50 1 0.0000000000000000e+00 -1.7367207453265249e+02 -2.6302661800687407e+01 -9.7258808219186477e+01 0 0 0
1921 55 2 0.0000000000000000e+00 -1.3744760682926574e+02 -2.5428653760303206e+01 -1.0679981446122211e+02 0 0 0
1922 55 1 0.0000000000000000e+00 -1.3915078729757025e+02 -2.9880517232280468e+01 -9.8800551476271565e+01 0 0 0
3929 113 4 0.0000000000000000e+00 -6.5437956921276026e+01 -2.8915396827823255e+01 -1.0026269530471309e+02 0 0 0
3930 113 4 0.0000000000000000e+00 -7.0206081680069090e+01 -3.6670227062630886e+01 -9.6850984845673977e+01 0 0 0
3742 107 3 0.0000000000000000e+00 -1.8015120923580298e+02 -2.1376656644809106e+01 -1.0502598388698316e+02 0 0 0
3743 107 4 0.0000000000000000e+00 -1.7998438991881741e+02 -1.4847577773689705e+01 -9.7385319348283630e+01 0 0 0
923 27 2 0.0000000000000000e+00 -1.3443538383409387e+02 -1.8090083368306004e+01 -9.9221838434304786e+01 0 0 0
924 27 2 0.0000000000000000e+00 -1.4059822336137341e+02 -1.0922706161851877e+01 -1.0208720606839744e+02 0 0 0
6875 197 4 0.0000000000000000e+00 -1.2281414388410191e+02 -1.4540407169860641e+01 -1.0332063887374558e+02 0 0 0
6876 197 4 0.0000000000000000e+00 -1.1541640216822286e+02 -1.5416466145527107e+01 -9.7129454032622789e+01 0 0 0
3928 113 4 0.0000000000000000e+00 -6.7432862848281715e+01 -2.1813417375767976e+01 -1.0649802374452618e+02 0 0 0
3744 107 4 0.0000000000000000e+00 -1.8715172733994308e+02 -7.3426048808432363e+00 -9.7041115219632161e+01 0 0 0
3745 107 4 0.0000000000000000e+00 -1.8138981733314367e+02 -9.8724202397558336e-01 -1.0143897592702585e+02 0 0 0
925 27 2 0.0000000000000000e+00 -1.4910914434727982e+02 -6.8112695743668041e+00 -9.8687246692213463e+01 0 0 0
1739 50 2 0.0000000000000000e+00 -1.1956240566737135e+02 -4.2678938027010913e+00 -1.0078971083442097e+02 0 0 0
6877 197 4 0.0000000000000000e+00 -1.1160916094745683e+02 -6.2928223677044937e+00 -9.5653449695287549e+01 0 0 0
6878 197 3 0.0000000000000000e+00 -1.0514388331166633e+02 5.1072714654611340e-01 -9.6050984157767417e+01 0 0 0
3678 106 4 0.0000000000000000e+00 -9.5530984189669269e+01 6.7375496265146351e-01 -1.0048415831417364e+02 0 0 0
214 7 1 0.0000000000000000e+00 -8.6500394098989446e+01 -2.2285506653378468e+00 -9.5562799705821021e+01 0 0 0
213 7 2 0.0000000000000000e+00 -8.0782432925128717e+01 1.6692025800908183e+00 -1.0293801777734993e+02 0 0 0
1909 55 2 0.0000000000000000e+00 -6.0770536272260053e+01 -7.0009023130896608e-01 -1.0210678772847056e+02 0 0 0
1910 55 2 0.0000000000000000e+00 -6.8570425458136285e+01 -3.8886510603115783e+00 -1.0773636910898834e+02 0 0 0
6872 197 4 0.0000000000000000e+00 -1.3614372469601614e+02 7.2705085518976453e+00 -1.0796834453181505e+02 0 0 0
5484 157 4 0.0000000000000000e+00 -1.1953996097910402e+02 8.0088766523499206e+00 -9.8794914170721526e+01 0 0 0
5485 157 3 0.0000000000000000e+00 -1.1493961150283559e+02 7.8366026886804843e+00 -1.0765494282801146e+02 0 0 0