LAMMPS data file via write_data, version 5 Jun 2019, timestep = 400000000

7000 atoms
4 atom types
7260 bonds
3 bond types
6600 angles
2 angle types

-5.0000000000000000e+02 5.0000000000000000e+02 xlo xhi
-5.0000000000000000e+02 5.0000000000000000e+02 ylo yhi
-5.0000000000000000e+02 5.0000000000000000e+02 zlo zhi

Masses

1 1000
2 1000
3 1000
4 1000

Pair Coeffs # lj/cut

1 0.178 10
2 0.178 10
3 0.178 10
4 0.178 10

Angle Coeffs # cosine

1 2
2 2

Atoms # full

6335 181 4 0.0000000000000000e+00 -8.0328782341630173e+01 -8.8253677569468095e+01 -2.4854704926461886e+02 0 0 0
6334 181 4 0.0000000000000000e+00 -7.6000435940122344e+01 -8.5579778840679097e+01 -2.4024060601854214e+02 0 0 0
5458 156 4 0.0000000000000000e+00 -3.6232890497222336e+01 -1.0957302968987102e+02 -2.2823439094347481e+02 0 0 0
5460 156 4 0.0000000000000000e+00 -4.8397254904576229e+01 -1.0217381086405403e+02 -2.3518205963225193e+02 0 0 0
5459 156 4 0.0000000000000000e+00 -3.9356300326115900e+01 -1.0132975232392555e+02 -2.3205548130417571e+02 0 0 0
6333 181 4 0.0000000000000000e+00 -7.2291998551398123e+01 -8.2910403794712067e+01 -2.3134332601034370e+02 0 0 0
6332 181 3 0.0000000000000000e+00 -6.8670440486429953e+01 -9.1295838163145064e+01 -2.2646482467244618e+02 0 0 0
3012 87 2 0.0000000000000000e+00 -7.7305992481105051e+01 -1.1365061333846900e+02 -2.1393535611150190e+02 0 0 0
3013 87 2 0.0000000000000000e+00 -7.9292128763538045e+01 -1.0986922891231848e+02 -2.2298220841256719e+02 0 0 0
5457 156 3 0.0000000000000000e+00 -3.1292345564918410e+01 -1.1115995205781891e+02 -2.1985277184548971e+02 0 0 0
3014 87 1 0.0000000000000000e+00 -7.4729612611895533e+01 -1.0081875311747005e+02 -2.2440822857177929e+02 0 0 0
3015 87 2 0.0000000000000000e+00 -6.5208650951283587e+01 -1.0138599922925374e+02 -2.2253530559763837e+02 0 0 0
3016 87 2 0.0000000000000000e+00 -6.0708747627997688e+01 -1.0048782446980809e+02 -2.1401579748227624e+02 0 0 0
2657 76 1 0.0000000000000000e+00 -2.4229832394053478e+01 -1.0589258282033327e+02 -2.1374670550766388e+02 0 0 0
6331 181 4 0.0000000000000000e+00 -7.1237618480472875e+01 -9.0571421449670069e+01 -2.1682501638727729e+02 0 0 0
5913 169 4 0.0000000000000000e+00 -3.6804505241056283e+01 1.0032687287906155e+00 -2.1351005393153488e+02 0 0 0
5914 169 4 0.0000000000000000e+00 -3.1383193226290444e+01 3.1415195786710219e+00 -2.2095526365343497e+02 0 0 0
5915 169 4 0.0000000000000000e+00 -3.0002568862628504e+01 1.2458243775121506e+01 -2.1777526205731741e+02 0 0 0
3011 87 2 0.0000000000000000e+00 -7.5707305145442874e+01 -1.1998774439874641e+02 -2.0649225131397907e+02 0 0 0
2097 60 1 0.0000000000000000e+00 -8.1713315077239287e+01 -1.0906942622825426e+02 -2.0419957086962157e+02 0 0 0
5456 156 4 0.0000000000000000e+00 -2.8125226085822497e+01 -1.1494831580223504e+02 -2.1147870162170469e+02 0 0 0
5455 156 4 0.0000000000000000e+00 -3.0896350131542235e+01 -1.1522526691187022e+02 -2.0192258000341073e+02 0 0 0
5454 156 4 0.0000000000000000e+00 -2.0894004425635810e+01 -1.1731922477149421e+02 -2.0215709290058197e+02 0 0 0
2098 60 2 0.0000000000000000e+00 -8.9233582796814886e+01 -1.0235847303662243e+02 -2.0872852367082888e+02 0 0 0
2099 60 2 0.0000000000000000e+00 -9.8800666611143541e+01 -9.8213333488144755e+01 -2.1076608786752078e+02 0 0 0
2656 76 2 0.0000000000000000e+00 -2.8345862781874768e+01 -1.0053651987331159e+02 -2.0543463048059189e+02 0 0 0
2100 60 2 0.0000000000000000e+00 -1.0778619483858438e+02 -9.5126056668072977e+01 -2.1041486350308014e+02 0 0 0
6329 181 4 0.0000000000000000e+00 -7.8003745038311038e+01 -8.7628408465974886e+01 -1.9935733705862049e+02 0 0 0
6330 181 4 0.0000000000000000e+00 -7.2583178101443508e+01 -9.0186231155504416e+01 -2.0717659579579339e+02 0 0 0
3017 87 2 0.0000000000000000e+00 -6.0750411242016277e+01 -9.3861600786647131e+01 -2.0711748638830167e+02 0 0 0
3018 87 2 0.0000000000000000e+00 -5.7905174243419758e+01 -8.9076877725453286e+01 -1.9872235154349434e+02 0 0 0
2655 76 2 0.0000000000000000e+00 -3.0933945318291407e+01 -9.3101737394480011e+01 -1.9852993776338423e+02 0 0 0
2822 81 2 0.0000000000000000e+00 -1.7980489551000798e+02 -5.9727604163751032e+01 -1.9983834059854161e+02 0 0 0
2821 81 2 0.0000000000000000e+00 -1.6956611709819123e+02 -5.8832019286915198e+01 -2.0007210238643501e+02 0 0 0
1644 47 2 0.0000000000000000e+00 -7.6935645348573843e+01 -6.4297245221089057e+01 -2.0926972146270174e+02 0 0 0
1643 47 2 0.0000000000000000e+00 -7.9668652017717619e+01 -5.9205722733514357e+01 -2.0115334217190633e+02 0 0 0
1645 47 2 0.0000000000000000e+00 -6.7451070529345060e+01 -6.8234169856610194e+01 -2.1075558327648113e+02 0 0 0
2825 81 1 0.0000000000000000e+00 -2.0127571116498805e+02 -4.2186825188115506e+01 -2.0311723936314326e+02 0 0 0
2824 81 2 0.0000000000000000e+00 -1.9228662593404613e+02 -4.5188005288011077e+01 -2.0470464994483595e+02 0 0 0
2823 81 2 0.0000000000000000e+00 -1.8441158209705745e+02 -5.0783197561273724e+01 -2.0153687799826932e+02 0 0 0
2498 72 2 0.0000000000000000e+00 -6.4737555063949571e+01 -5.2652211815580579e+00 -2.0872689309803465e+02 0 0 0
2497 72 2 0.0000000000000000e+00 -5.4612443129100832e+01 -4.5686328402621879e+00 -2.0714572358159091e+02 0 0 0
2496 72 1 0.0000000000000000e+00 -4.8838003282521356e+01 -3.4554083149527726e+00 -1.9900111079949090e+02 0 0 0
5901 169 4 0.0000000000000000e+00 -2.5272452863236243e+01 -5.6525141889658732e+00 -2.0739060074732865e+02 0 0 0
2499 72 2 0.0000000000000000e+00 -7.0140798929062640e+01 2.5523729101635233e+00 -2.0479959396627316e+02 0 0 0
5912 169 3 0.0000000000000000e+00 -4.0482319126656336e+01 1.1099386448137827e+00 -2.0390592752417086e+02 0 0 0
5899 169 4 0.0000000000000000e+00 -3.3530723575091180e+01 1.2012129590552824e+01 -2.0561092195489147e+02 0 0 0
5900 169 4 0.0000000000000000e+00 -2.8053174302345298e+01 3.8115868717575934e+00 -2.0668574340437672e+02 0 0 0
2096 60 2 0.0000000000000000e+00 -8.1682975419479291e+01 -1.1630083826315536e+02 -1.9804090323917006e+02 0 0 0
2095 60 2 0.0000000000000000e+00 -7.7013954590947321e+01 -1.1569819663576129e+02 -1.8943376071016425e+02 0 0 0
6327 181 4 0.0000000000000000e+00 -8.5780671570414654e+01 -9.8146100007034107e+01 -1.8643839806804462e+02 0 0 0
5076 146 4 0.0000000000000000e+00 -6.9928980127285683e+01 -1.0202165833816917e+02 -1.9710406808172738e+02 0 0 0
5077 146 4 0.0000000000000000e+00 -6.5699045725936287e+01 -9.7249986589808145e+01 -1.9015173223485581e+02 0 0 0
2088 60 2 0.0000000000000000e+00 -1.1644810071185042e+02 -8.3986859244458344e+01 -1.8790542701747560e+02 0 0 0
2089 60 2 0.0000000000000000e+00 -1.0743816124903198e+02 -8.7847132844112920e+01 -1.8603426249993714e+02 0 0 0
6328 181 4 0.0000000000000000e+00 -8.4667440381651602e+01 -9.1574885307317089e+01 -1.9303501352636908e+02 0 0 0
5078 146 4 0.0000000000000000e+00 -5.7548342456660393e+01 -9.2832314623670356e+01 -1.8579811922251753e+02 0 0 0
5079 146 3 0.0000000000000000e+00 -5.8877892011614044e+01 -8.3235186488277890e+01 -1.8557804512477546e+02 0 0 0
2654 76 2 0.0000000000000000e+00 -2.8723168703662132e+01 -8.3426439783298775e+01 -1.9609270866675141e+02 0 0 0
1641 47 2 0.0000000000000000e+00 -7.7508247961188104e+01 -7.2251317584900946e+01 -1.8675495542076575e+02 0 0 0
3020 87 2 0.0000000000000000e+00 -7.3029504949515157e+01 -8.1136565245979654e+01 -1.9156578207990259e+02 0 0 0
3019 87 2 0.0000000000000000e+00 -6.4134884944144446e+01 -8.1693704525226906e+01 -1.9564787846008809e+02 0 0 0
2653 76 2 0.0000000000000000e+00 -2.9158631747328855e+01 -7.9149794944641798e+01 -1.8730682201253089e+02 0 0 0
2820 81 2 0.0000000000000000e+00 -1.6430011849849222e+02 -5.8387433211162197e+01 -1.9135782254122716e+02 0 0 0
4731 136 4 0.0000000000000000e+00 -9.4090775924980022e+01 -6.7142989084573074e+01 -1.8538511244221692e+02 0 0 0
1642 47 1 0.0000000000000000e+00 -7.7285992893138243e+01 -6.7874790518500546e+01 -1.9605020037643828e+02 0 0 0
4729 136 3 0.0000000000000000e+00 -7.5926680314691069e+01 -6.1003647274647449e+01 -1.8742538705359979e+02 0 0 0
4728 136 4 0.0000000000000000e+00 -6.6527942906506723e+01 -5.8515386690738431e+01 -1.8501762177663747e+02 0 0 0
2827 81 2 0.0000000000000000e+00 -2.1074444803244211e+02 -4.1554216600808211e+01 -1.8692691649839739e+02 0 0 0
2826 81 2 0.0000000000000000e+00 -2.0879766882715711e+02 -4.0849963958249909e+01 -1.9664383377935482e+02 0 0 0
6337 182 4 0.0000000000000000e+00 -1.1587919841611641e+02 -3.7820584954652688e+01 -1.9203305782558473e+02 0 0 0
6336 182 4 0.0000000000000000e+00 -1.2445570424161767e+02 -3.2934762635491502e+01 -1.9108167636496367e+02 0 0 0
2495 72 2 0.0000000000000000e+00 -4.2126275465376295e+01 -9.1122784395209635e+00 -1.9109275308548598e+02 0 0 0
5910 169 4 0.0000000000000000e+00 -3.0790512499259087e+01 -6.9121224267788408e+00 -1.9171927399010383e+02 0 0 0
2501 72 2 0.0000000000000000e+00 -7.4349362799264213e+01 3.9403031651281823e+00 -1.8637724537515896e+02 0 0 0
2500 72 2 0.0000000000000000e+00 -7.3354236309122527e+01 -3.6008013587704396e-01 -1.9535929835509555e+02 0 0 0
5911 169 4 0.0000000000000000e+00 -3.3980853907225708e+01 8.3277912431544510e-01 -1.9655927853997778e+02 0 0 0
2094 60 2 0.0000000000000000e+00 -8.0735809329741443e+01 -1.1007233209934134e+02 -1.8183626959044719e+02 0 0 0
6325 181 3 0.0000000000000000e+00 -9.8587036501297831e+01 -9.6737372907225719e+01 -1.7163486116972533e+02 0 0 0
6326 181 4 0.0000000000000000e+00 -9.1691891419865826e+01 -9.8958608248894521e+01 -1.7888780467571328e+02 0 0 0
2093 60 2 0.0000000000000000e+00 -8.2454384153079417e+01 -1.0135466452495417e+02 -1.7641339576423218e+02 0 0 0
2087 60 2 0.0000000000000000e+00 -1.2553637647608829e+02 -8.2443369315395856e+01 -1.8376296532397643e+02 0 0 0
2090 60 1 0.0000000000000000e+00 -1.0191248079090856e+02 -8.7899068611432952e+01 -1.7793009980764870e+02 0 0 0
2091 60 2 0.0000000000000000e+00 -9.2123506010227146e+01 -8.6141351196224903e+01 -1.7745569337011744e+02 0 0 0
2092 60 2 0.0000000000000000e+00 -8.3986322605793518e+01 -9.1800035635321620e+01 -1.7459739990766855e+02 0 0 0
3022 87 2 0.0000000000000000e+00 -6.3117988199366835e+01 -8.4669451502109965e+01 -1.7532807867415735e+02 0 0 0
3021 87 1 0.0000000000000000e+00 -6.9595207081476673e+01 -8.4375617874055237e+01 -1.8302871449983070e+02 0 0 0
2086 60 2 0.0000000000000000e+00 -1.2286478092509103e+02 -7.4119561917659794e+01 -1.7769208377251272e+02 0 0 0
4735 136 4 0.0000000000000000e+00 -1.1633110882819649e+02 -8.1629624390969170e+01 -1.7128337283717644e+02 0 0 0
4733 136 4 0.0000000000000000e+00 -1.1036032816641074e+02 -7.1772013453669061e+01 -1.8438077931541252e+02 0 0 0
4734 136 4 0.0000000000000000e+00 -1.0995016577752311e+02 -7.8331483484518131e+01 -1.7763394481199987e+02 0 0 0
1639 47 2 0.0000000000000000e+00 -8.6839738513941015e+01 -7.8377973277809218e+01 -1.7331834824095645e+02 0 0 0
1640 47 2 0.0000000000000000e+00 -7.7458497892944322e+01 -7.7684987554742349e+01 -1.7709180431026749e+02 0 0 0
3023 87 2 0.0000000000000000e+00 -6.8354861050345647e+01 -7.6907888728509093e+01 -1.7070952717568315e+02 0 0 0
5080 146 4 0.0000000000000000e+00 -5.4942123440453038e+01 -7.4604503862669020e+01 -1.8115719904941363e+02 0 0 0
5081 146 4 0.0000000000000000e+00 -5.1285258830354032e+01 -7.0279943961225001e+01 -1.7320467517487245e+02 0 0 0
2652 76 2 0.0000000000000000e+00 -2.5942858419940482e+01 -7.2414707544332060e+01 -1.7984383476614065e+02 0 0 0
6239 179 4 0.0000000000000000e+00 -1.8438325081455795e+02 -6.2807012039526903e+01 -1.7075451577621848e+02 0 0 0
2818 81 1 0.0000000000000000e+00 -1.6924329179073729e+02 -6.5914994860395225e+01 -1.7371406783399081e+02 0 0 0
2819 81 2 0.0000000000000000e+00 -1.6540318152917223e+02 -6.1482973573256871e+01 -1.8214800170737152e+02 0 0 0
1366 40 2 0.0000000000000000e+00 -1.3968660285878536e+02 -6.0739980742756195e+01 -1.7310584031486084e+02 0 0 0
2085 60 2 0.0000000000000000e+00 -1.1612713375960006e+02 -6.7312163885485106e+01 -1.7368579668322107e+02 0 0 0
2906 84 2 0.0000000000000000e+00 -1.2881056639326530e+02 -6.2510074490951176e+01 -1.8056112256479136e+02 0 0 0
2084 60 2 0.0000000000000000e+00 -1.1287154776555741e+02 -5.8016204375451949e+01 -1.7387039383766748e+02 0 0 0
4732 136 4 0.0000000000000000e+00 -1.0369774663004107e+02 -6.4839112112219794e+01 -1.8433046783414829e+02 0 0 0
4730 136 4 0.0000000000000000e+00 -8.4752016165302237e+01 -6.4255821501423895e+01 -1.8405028785858497e+02 0 0 0
2651 76 2 0.0000000000000000e+00 -2.6962154883215476e+01 -6.5559401094706814e+01 -1.7321548412652737e+02 0 0 0
2907 84 2 0.0000000000000000e+00 -1.2577175996726832e+02 -5.3094802507604811e+01 -1.8037324109759024e+02 0 0 0
2908 84 2 0.0000000000000000e+00 -1.2458526219949977e+02 -4.3647223355096678e+01 -1.7725872903028863e+02 0 0 0
6338 182 4 0.0000000000000000e+00 -1.1271489900347936e+02 -4.1713168098464443e+01 -1.8368951042864228e+02 0 0 0
2083 60 1 0.0000000000000000e+00 -1.0647941953536930e+02 -5.0673548063069383e+01 -1.7566675445965677e+02 0 0 0
2082 60 2 0.0000000000000000e+00 -9.7752543841574095e+01 -4.5296421088920482e+01 -1.7633859074877375e+02 0 0 0
3042 87 1 0.0000000000000000e+00 -7.8993546651404458e+01 -5.0415692236249718e+01 -1.8258089308816972e+02 0 0 0
3041 87 2 0.0000000000000000e+00 -8.4700240757461785e+01 -5.3711267177249134e+01 -1.7628770197752777e+02 0 0 0
3043 87 2 0.0000000000000000e+00 -7.7034381587657990e+01 -4.8022299321076304e+01 -1.7277116693511556e+02 0 0 0
4727 136 4 0.0000000000000000e+00 -5.8478294961147562e+01 -5.3694488920606894e+01 -1.8251380644919098e+02 0 0 0
4726 136 4 0.0000000000000000e+00 -5.4571666449961100e+01 -4.8530383519860628e+01 -1.7416915524298287e+02 0 0 0
2828 81 2 0.0000000000000000e+00 -2.0710298828235196e+02 -4.1142470827504852e+01 -1.7806968694226308e+02 0 0 0
2829 81 2 0.0000000000000000e+00 -1.9785053792870099e+02 -3.7126127811646590e+01 -1.7498138504772936e+02 0 0 0
2909 84 1 0.0000000000000000e+00 -1.2263228720562753e+02 -3.5285306281084267e+01 -1.7136360875094564e+02 0 0 0
6339 182 3 0.0000000000000000e+00 -1.1099904473538744e+02 -4.0995107717657099e+01 -1.7399567458705189e+02 0 0 0
2081 60 2 0.0000000000000000e+00 -9.3212527324364373e+01 -4.0653184255082117e+01 -1.8430111281316152e+02 0 0 0
2080 60 2 0.0000000000000000e+00 -8.3926571102324743e+01 -3.6898322557441418e+01 -1.8158897539251780e+02 0 0 0
2078 60 2 0.0000000000000000e+00 -6.7781563459791258e+01 -2.8780142050221031e+01 -1.8147845276417135e+02 0 0 0
2079 60 2 0.0000000000000000e+00 -7.3849405965707760e+01 -3.5906249138968434e+01 -1.8436357389760320e+02 0 0 0
2077 60 2 0.0000000000000000e+00 -7.6462400101025608e+01 -2.3083672987871974e+01 -1.7930800056774831e+02 0 0 0
2076 60 1 0.0000000000000000e+00 -7.3652702161682896e+01 -1.4897924242756535e+01 -1.7369345878941132e+02 0 0 0
2493 72 2 0.0000000000000000e+00 -3.2706554340747978e+01 -1.4870063532224989e+01 -1.7554667784681283e+02 0 0 0
5531 159 4 0.0000000000000000e+00 -1.1576135040554313e+02 -9.9760354388678152e-01 -1.7321719585973318e+02 0 0 0
2075 60 2 0.0000000000000000e+00 -7.0589159489798647e+01 -5.1464556512086759e+00 -1.7345257665184906e+02 0 0 0
2494 72 2 0.0000000000000000e+00 -3.6327865691569919e+01 -1.2467327179212614e+01 -1.8409246739048712e+02 0 0 0
5909 169 4 0.0000000000000000e+00 -2.6618077538511702e+01 -7.5786349624323286e+00 -1.8344505152065250e+02 0 0 0
5882 169 4 0.0000000000000000e+00 -7.6229178539689130e+01 1.1283231507384027e+01 -1.7172760394963606e+02 0 0 0
2502 72 2 0.0000000000000000e+00 -6.4734152176356460e+01 5.1931995735525689e+00 -1.8305622413907534e+02 0 0 0
2503 72 1 0.0000000000000000e+00 -5.7362820479664009e+01 5.5848509312756303e+00 -1.7560867479100335e+02 0 0 0
2504 72 2 0.0000000000000000e+00 -4.8567919329201587e+01 3.6812012688653093e+00 -1.7083142955539287e+02 0 0 0
6323 181 4 0.0000000000000000e+00 -1.1601498327997130e+02 -9.6878389153596956e+01 -1.6110470034132496e+02 0 0 0
6324 181 4 0.0000000000000000e+00 -1.0812853288896439e+02 -9.6396008927068848e+01 -1.6780191552034424e+02 0 0 0
5448 156 4 0.0000000000000000e+00 -1.9503130720034076e+01 -9.8021109430666982e+01 -1.6305889114282417e+02 0 0 0
2815 81 2 0.0000000000000000e+00 -1.8526364861706782e+02 -8.3283529678806786e+01 -1.6125192747041316e+02 0 0 0
4736 136 3 0.0000000000000000e+00 -1.1774396631216578e+02 -8.5070912192967171e+01 -1.6186345953700308e+02 0 0 0
6260 179 4 0.0000000000000000e+00 -7.0177664110458551e+01 -8.9166049231776384e+01 -1.5791114961501160e+02 0 0 0
6259 179 4 0.0000000000000000e+00 -6.3726353705282463e+01 -8.2478025358422386e+01 -1.6128866905302678e+02 0 0 0
2816 81 2 0.0000000000000000e+00 -1.7702059642692177e+02 -7.8306638675395433e+01 -1.6327609581702160e+02 0 0 0
2817 81 2 0.0000000000000000e+00 -1.6922366222542166e+02 -7.3356206987559517e+01 -1.6646216418206339e+02 0 0 0
6242 179 4 0.0000000000000000e+00 -1.5844385042823902e+02 -6.8887805224255999e+01 -1.6566651900498951e+02 0 0 0
1638 47 2 0.0000000000000000e+00 -9.1305546610768161e+01 -7.7730326471632495e+01 -1.6496338760490625e+02 0 0 0
1637 47 2 0.0000000000000000e+00 -9.9691195372369265e+01 -7.9283217907240157e+01 -1.6002820674089207e+02 0 0 0
3024 87 2 0.0000000000000000e+00 -7.3796922886882001e+01 -7.0258309413528195e+01 -1.6457235396414958e+02 0 0 0
6258 179 4 0.0000000000000000e+00 -5.9006403369253576e+01 -7.3557025707524275e+01 -1.6134245252516712e+02 0 0 0
5082 146 4 0.0000000000000000e+00 -4.3493753111347743e+01 -7.3686594386315804e+01 -1.6847882073045201e+02 0 0 0
5083 146 4 0.0000000000000000e+00 -3.6739372340987885e+01 -7.3159828418486825e+01 -1.6114968381352972e+02 0 0 0
5084 146 4 0.0000000000000000e+00 -2.7847915162392841e+01 -7.4677213604837760e+01 -1.5766294738598097e+02 0 0 0
5085 146 4 0.0000000000000000e+00 -1.9882630181388798e+01 -7.0092006536910233e+01 -1.6250449330072871e+02 0 0 0
6238 179 4 0.0000000000000000e+00 -1.9292082624869329e+02 -5.9547618093246562e+01 -1.6601297550911394e+02 0 0 0
6240 179 4 0.0000000000000000e+00 -1.7484428737835134e+02 -6.1025809514473849e+01 -1.6674207378630359e+02 0 0 0
6241 179 3 0.0000000000000000e+00 -1.6506042398507134e+02 -6.1535831981711425e+01 -1.6384473115928424e+02 0 0 0
6243 179 4 0.0000000000000000e+00 -1.4879994785736594e+02 -6.6568013903761695e+01 -1.6490190712248295e+02 0 0 0
1367 40 2 0.0000000000000000e+00 -1.3324946469327116e+02 -5.4997594685314752e+01 -1.6683843116659642e+02 0 0 0
3039 87 2 0.0000000000000000e+00 -9.4465678877342583e+01 -6.0484859496898892e+01 -1.6445234035593563e+02 0 0 0
3025 87 2 0.0000000000000000e+00 -7.5521058771760423e+01 -6.2832832687262353e+01 -1.5726857467379716e+02 0 0 0
6257 179 4 0.0000000000000000e+00 -5.5977023278391030e+01 -6.4168335321361909e+01 -1.6173513561575433e+02 0 0 0
6256 179 4 0.0000000000000000e+00 -5.5288625183714693e+01 -5.5095739483779418e+01 -1.6464752859766514e+02 0 0 0
6237 179 4 0.0000000000000000e+00 -1.9240967007447261e+02 -4.9747510814538927e+01 -1.6548875450305670e+02 0 0 0
6236 179 4 0.0000000000000000e+00 -1.8941359211404813e+02 -4.2298813146204530e+01 -1.6117153220174330e+02 0 0 0
1368 40 2 0.0000000000000000e+00 -1.3065003473889155e+02 -4.7966486704181023e+01 -1.6048703415770905e+02 0 0 0
1370 40 2 0.0000000000000000e+00 -1.1873484718139447e+02 -5.4287558622397341e+01 -1.5943259603003878e+02 0 0 0
1371 40 2 0.0000000000000000e+00 -1.1017118013486954e+02 -4.9563443827691053e+01 -1.5812772659449323e+02 0 0 0
3040 87 2 0.0000000000000000e+00 -9.0228437310535497e+01 -5.2523602153492611e+01 -1.6775123397252887e+02 0 0 0
3044 87 2 0.0000000000000000e+00 -7.7514706823182564e+01 -4.8164419304123555e+01 -1.6257653562511510e+02 0 0 0
3045 87 2 0.0000000000000000e+00 -8.4929924740423871e+01 -4.3053319999812430e+01 -1.5826826558890554e+02 0 0 0
6255 179 3 0.0000000000000000e+00 -5.7095582744308587e+01 -4.5773094252584251e+01 -1.6326547865672885e+02 0 0 0
2830 81 2 0.0000000000000000e+00 -1.9324323264683392e+02 -3.4162432845872445e+01 -1.6643352977173410e+02 0 0 0
6340 182 4 0.0000000000000000e+00 -1.0656114554622378e+02 -3.6699508939678154e+01 -1.6566322259193012e+02 0 0 0
6341 182 4 0.0000000000000000e+00 -9.7388263625595016e+01 -3.5332189493856532e+01 -1.6306678937722347e+02 0 0 0
6342 182 4 0.0000000000000000e+00 -8.8378903744951472e+01 -3.3385998618988197e+01 -1.6591200428650336e+02 0 0 0
6343 182 4 0.0000000000000000e+00 -8.0032815287861069e+01 -2.8372167678068106e+01 -1.6707440728696795e+02 0 0 0
2489 72 1 0.0000000000000000e+00 -4.8816639309761406e+01 -3.9902955529343267e+01 -1.5914751947858210e+02 0 0 0
2490 72 2 0.0000000000000000e+00 -4.3815987387828812e+01 -3.6408739506786290e+01 -1.6773313166960901e+02 0 0 0
2491 72 2 0.0000000000000000e+00 -3.6629397963714638e+01 -2.9156428500006225e+01 -1.6595342891594396e+02 0 0 0
2831 81 2 0.0000000000000000e+00 -1.8947832092653192e+02 -2.4243443608413674e+01 -1.6545603845872503e+02 0 0 0
2832 81 1 0.0000000000000000e+00 -1.8449972453893670e+02 -1.9237892264666591e+01 -1.5880209063916203e+02 0 0 0
2834 81 2 0.0000000000000000e+00 -1.6948269207808610e+02 -2.0329409808468718e+01 -1.6015699537847485e+02 0 0 0
2835 81 2 0.0000000000000000e+00 -1.6335221171397907e+02 -1.4570830096030372e+01 -1.6513038288909695e+02 0 0 0
2911 84 2 0.0000000000000000e+00 -1.3532888217443926e+02 -2.0334528448294659e+01 -1.6783483409681776e+02 0 0 0
2912 84 2 0.0000000000000000e+00 -1.3993498497220915e+02 -1.8976761409451850e+01 -1.5925427144715286e+02 0 0 0
2910 84 2 0.0000000000000000e+00 -1.2749175540193781e+02 -2.6416910184108371e+01 -1.6845809880409570e+02 0 0 0
5548 159 3 0.0000000000000000e+00 -7.8505549844981601e+01 -1.5611106245823320e+01 -1.6338417759867346e+02 0 0 0
6344 182 4 0.0000000000000000e+00 -7.0948220748003322e+01 -2.2865633603415386e+01 -1.6643306883531042e+02 0 0 0
6345 182 4 0.0000000000000000e+00 -6.5582980478721012e+01 -1.5388000766893430e+01 -1.6223461237347792e+02 0 0 0
2492 72 2 0.0000000000000000e+00 -3.4618025004220115e+01 -1.9376827334347464e+01 -1.6695211691989292e+02 0 0 0
2927 84 2 0.0000000000000000e+00 -1.7656641197810310e+02 -1.1478121047757526e+00 -1.5823845134033149e+02 0 0 0
3744 107 4 0.0000000000000000e+00 -1.5553267201717719e+02 -5.0744351341134672e+00 -1.6420160005567556e+02 0 0 0
3745 107 4 0.0000000000000000e+00 -1.5380938222452158e+02 -1.4283598592255125e+01 -1.6085833013202682e+02 0 0 0
1525 44 2 0.0000000000000000e+00 -9.1228677263778479e+01 -6.4188126080352985e+00 -1.5701533328477061e+02 0 0 0
5547 159 4 0.0000000000000000e+00 -8.6769915989478378e+01 -1.1187961180545798e+01 -1.6504666260989256e+02 0 0 0
5546 159 4 0.0000000000000000e+00 -8.0925299510630524e+01 -3.3383356384519169e+00 -1.6486008974141441e+02 0 0 0
6346 182 3 0.0000000000000000e+00 -6.4145492991731302e+01 -5.7915606785029183e+00 -1.5924073489265999e+02 0 0 0
2925 84 2 0.0000000000000000e+00 -1.9513551254792674e+02 4.6350428503410734e+00 -1.5897067422605664e+02 0 0 0
3743 107 4 0.0000000000000000e+00 -1.5624004391357761e+02 4.6210131726909189e+00 -1.6284822194138846e+02 0 0 0
5532 159 4 0.0000000000000000e+00 -1.1951940211990809e+02 2.1649598868391697e+00 -1.6471998540550157e+02 0 0 0
5545 159 4 0.0000000000000000e+00 -7.9472378924195993e+01 4.7094962542176253e+00 -1.5938087426280558e+02 0 0 0
2074 60 2 0.0000000000000000e+00 -6.7766337250461049e+01 3.8685216152371198e+00 -1.7047429525979982e+02 0 0 0
2505 72 2 0.0000000000000000e+00 -4.0365035089699312e+01 7.5107802804895876e+00 -1.6790618861504956e+02 0 0 0
6265 179 4 0.0000000000000000e+00 -1.0594788198271462e+02 -1.1230494654888007e+02 -1.5482131217010564e+02 0 0 0
6264 179 4 0.0000000000000000e+00 -9.9514992057355499e+01 -1.1050395268951934e+02 -1.4652512258003583e+02 0 0 0
6322 181 4 0.0000000000000000e+00 -1.2398648228070834e+02 -9.5250628548015655e+01 -1.5500617524530693e+02 0 0 0
6263 179 4 0.0000000000000000e+00 -9.2451349255669612e+01 -1.0380663290004614e+02 -1.4918697221728721e+02 0 0 0
6262 179 3 0.0000000000000000e+00 -8.7653630761026477e+01 -9.6723408879454496e+01 -1.5336509276438676e+02 0 0 0
5447 156 4 0.0000000000000000e+00 -2.2537140782955845e+01 -9.6960298639828537e+01 -1.5360690570099021e+02 0 0 0
2814 81 2 0.0000000000000000e+00 -1.8443210999051951e+02 -8.6518928225998195e+01 -1.5171353911237136e+02 0 0 0
2813 81 2 0.0000000000000000e+00 -1.7557373683456396e+02 -8.7969996911887108e+01 -1.4804087915758566e+02 0 0 0
6319 181 4 0.0000000000000000e+00 -1.4867639435662653e+02 -8.3455364511858363e+01 -1.4412162879505220e+02 0 0 0
6321 181 4 0.0000000000000000e+00 -1.3334334835101413e+02 -9.4032667685523805e+01 -1.5252832057536023e+02 0 0 0
6320 181 4 0.0000000000000000e+00 -1.4084307648102984e+02 -9.0335429674827637e+01 -1.4611192479259915e+02 0 0 0
2807 81 2 0.0000000000000000e+00 -1.2736071738923191e+02 -8.5882745083766849e+01 -1.4590060309061997e+02 0 0 0
4738 136 4 0.0000000000000000e+00 -1.0335637172071098e+02 -9.2462224450018837e+01 -1.5557608141966514e+02 0 0 0
4737 136 4 0.0000000000000000e+00 -1.1265808097577896e+02 -9.0287674079168895e+01 -1.5500748387540457e+02 0 0 0
2803 81 2 0.0000000000000000e+00 -1.0662372518872954e+02 -8.7291499301613641e+01 -1.4694354417872927e+02 0 0 0
2804 81 1 0.0000000000000000e+00 -1.0926007258638006e+02 -8.1928009095561478e+01 -1.5467586930930182e+02 0 0 0
4739 136 4 0.0000000000000000e+00 -9.6488953875040139e+01 -8.9457323744236362e+01 -1.4892298969102134e+02 0 0 0
6261 179 4 0.0000000000000000e+00 -7.9960912280468094e+01 -9.0902156500560025e+01 -1.5567231932136400e+02 0 0 0
3035 87 1 0.0000000000000000e+00 -8.4851436229491085e+01 -8.7139918916621170e+01 -1.4747063066737090e+02 0 0 0
2806 81 2 0.0000000000000000e+00 -1.2209454664769545e+02 -7.7669624127246578e+01 -1.4690672745924542e+02 0 0 0
2805 81 2 0.0000000000000000e+00 -1.1451662020346576e+02 -7.3952054091439820e+01 -1.5291032613082081e+02 0 0 0
1636 47 2 0.0000000000000000e+00 -1.0282507980528082e+02 -7.5454467777166428e+01 -1.5117078156250687e+02 0 0 0
3037 87 2 0.0000000000000000e+00 -9.1149178855264722e+01 -6.9055126798046857e+01 -1.4843429611919214e+02 0 0 0
4740 136 4 0.0000000000000000e+00 -9.5640735746561006e+01 -8.1191974144144524e+01 -1.4336913220571824e+02 0 0 0
3036 87 2 0.0000000000000000e+00 -8.5704145719210558e+01 -7.7297261412478363e+01 -1.4739265755082670e+02 0 0 0
3194 92 2 0.0000000000000000e+00 -3.8580635956718595e+01 -7.2391267858246252e+01 -1.4514910491592801e+02 0 0 0
3196 92 1 0.0000000000000000e+00 -2.2308748568090429e+01 -7.0829979495449322e+01 -1.4853538873581206e+02 0 0 0
6244 179 4 0.0000000000000000e+00 -1.4460185101397272e+02 -6.5941840324435006e+01 -1.5594193209578737e+02 0 0 0
6245 179 4 0.0000000000000000e+00 -1.3973394181354453e+02 -6.3816865969161107e+01 -1.4736262148188459e+02 0 0 0
6246 179 4 0.0000000000000000e+00 -1.2988657018847047e+02 -6.3917932695956651e+01 -1.4999125338858568e+02 0 0 0
6247 179 4 0.0000000000000000e+00 -1.1984333463326865e+02 -6.3826917469438747e+01 -1.4692601813687961e+02 0 0 0
1635 47 1 0.0000000000000000e+00 -1.0713511149023044e+02 -6.6945469219291695e+01 -1.4898980821939679e+02 0 0 0
6249 179 4 0.0000000000000000e+00 -1.0327919659116152e+02 -5.5986836823287710e+01 -1.4703835254644630e+02 0 0 0
3038 87 2 0.0000000000000000e+00 -9.6514467872766247e+01 -6.5815911313861690e+01 -1.5573623980003288e+02 0 0 0
6250 179 4 0.0000000000000000e+00 -9.2976821154715253e+01 -5.5075921344861449e+01 -1.4883304474367645e+02 0 0 0
3026 87 2 0.0000000000000000e+00 -7.3020346301186905e+01 -5.7731272939494346e+01 -1.4923117002890095e+02 0 0 0
1369 40 1 0.0000000000000000e+00 -1.2287026592752669e+02 -4.8279605204792887e+01 -1.5372773091587842e+02 0 0 0
1372 40 2 0.0000000000000000e+00 -1.0069912571037727e+02 -4.6059088866663963e+01 -1.5524900948954800e+02 0 0 0
6251 179 4 0.0000000000000000e+00 -8.3981954035602442e+01 -5.1067928979276907e+01 -1.4974354286780019e+02 0 0 0
6252 179 4 0.0000000000000000e+00 -7.4735203602820675e+01 -4.7570499161858393e+01 -1.4987134712278075e+02 0 0 0
6253 179 4 0.0000000000000000e+00 -6.6204958088712061e+01 -4.6816059554823255e+01 -1.5399508086473926e+02 0 0 0
2488 72 2 0.0000000000000000e+00 -5.1794906815332318e+01 -4.4679888036156939e+01 -1.5041008180657167e+02 0 0 0
2487 72 2 0.0000000000000000e+00 -4.4054743141347807e+01 -4.9386015548520312e+01 -1.4578578246999194e+02 0 0 0
6235 179 4 0.0000000000000000e+00 -1.8544936329842838e+02 -3.5346177358911753e+01 -1.5522174527302346e+02 0 0 0
1373 40 2 0.0000000000000000e+00 -9.2932808317181937e+01 -4.0249842949448478e+01 -1.5207678007761066e+02 0 0 0
1374 40 2 0.0000000000000000e+00 -8.9926836485222637e+01 -3.1544624275775050e+01 -1.5129320811498775e+02 0 0 0
6254 179 4 0.0000000000000000e+00 -5.9349995146606759e+01 -4.0120406586768759e+01 -1.5545283408932062e+02 0 0 0
1520 44 2 0.0000000000000000e+00 -5.4867829512665885e+01 -3.1284253814173489e+01 -1.4367720256926279e+02 0 0 0
6234 179 3 0.0000000000000000e+00 -1.8565165740798977e+02 -2.6539310353043028e+01 -1.5085538018382920e+02 0 0 0
2833 81 2 0.0000000000000000e+00 -1.7687496509099603e+02 -2.5054221341090017e+01 -1.5598699179369333e+02 0 0 0
6232 179 4 0.0000000000000000e+00 -1.7242151522984986e+02 -2.1036500905151723e+01 -1.4401396128542129e+02 0 0 0
6233 179 4 0.0000000000000000e+00 -1.8204842318955261e+02 -1.9927027251256092e+01 -1.4460250128376683e+02 0 0 0
6231 179 4 0.0000000000000000e+00 -1.6469944223101533e+02 -2.7769059377133043e+01 -1.4416393816136568e+02 0 0 0
5549 159 4 0.0000000000000000e+00 -7.5594713636324755e+01 -2.0991742978054678e+01 -1.5511077442002627e+02 0 0 0
5550 159 4 0.0000000000000000e+00 -8.1709498229981435e+01 -2.5156527947158740e+01 -1.4852998954052302e+02 0 0 0
1522 44 2 0.0000000000000000e+00 -6.5897180777207112e+01 -1.6247085608891457e+01 -1.4969274435737529e+02 0 0 0
1521 44 2 0.0000000000000000e+00 -5.9178294867483686e+01 -2.2808639526198661e+01 -1.4629401935718803e+02 0 0 0
2914 84 2 0.0000000000000000e+00 -1.4710834871035615e+02 -3.1905154898856534e+00 -1.5022749533924022e+02 0 0 0
2913 84 2 0.0000000000000000e+00 -1.4259309672899181e+02 -1.0960356022505682e+01 -1.5304125139424349e+02 0 0 0
1528 44 2 0.0000000000000000e+00 -1.1545976945210951e+02 -1.9939062526407016e+00 -1.4580824252427820e+02 0 0 0
1527 44 2 0.0000000000000000e+00 -1.0974956671490240e+02 -3.6221234791184282e+00 -1.5304500726003022e+02 0 0 0