LAMMPS data file via write_data, version 5 Jun 2019, timestep = 300000000

7000 atoms
4 atom types
7256 bonds
3 bond types
6600 angles
2 angle types

-5.0000000000000000e+02 5.0000000000000000e+02 xlo xhi
-5.0000000000000000e+02 5.0000000000000000e+02 ylo yhi
-5.0000000000000000e+02 5.0000000000000000e+02 zlo zhi

Masses

1 1000
2 1000
3 1000
4 1000

Pair Coeffs # lj/cut

1 0.178 10
2 0.178 10
3 0.178 10
4 0.178 10

Angle Coeffs # cosine

1 2
2 2

Atoms # full

2801 81 2 0.0000000000000000e+00 -1.5438493468256962e+02 -6.4595508351522540e+01 -2.4480088896989179e+02 0 0 0
6322 181 4 0.0000000000000000e+00 -3.3003843428207070e+01 -1.2620504440758232e+02 -2.2874174835219208e+02 0 0 0
6324 181 4 0.0000000000000000e+00 -4.3022654646072645e+01 -1.1204192824427096e+02 -2.2482399352919145e+02 0 0 0
6323 181 4 0.0000000000000000e+00 -3.4402523483206593e+01 -1.1640719226189900e+02 -2.2679353120314343e+02 0 0 0
6325 181 3 0.0000000000000000e+00 -4.5735166636679274e+01 -1.0263389952158283e+02 -2.2259892502658059e+02 0 0 0
6326 181 4 0.0000000000000000e+00 -5.0617983443777909e+01 -9.5529263643085585e+01 -2.2677557379827351e+02 0 0 0
6327 181 4 0.0000000000000000e+00 -4.7286822195138605e+01 -8.7553626510886559e+01 -2.3178366835610657e+02 0 0 0
6328 181 4 0.0000000000000000e+00 -4.2537145321071264e+01 -7.8677049914516971e+01 -2.3318463658840108e+02 0 0 0
6329 181 4 0.0000000000000000e+00 -4.3899924443134267e+01 -7.3455523654178066e+01 -2.2471030103633819e+02 0 0 0
2803 81 2 0.0000000000000000e+00 -1.5020537396668294e+02 -6.5166682445578431e+01 -2.2601999314584785e+02 0 0 0
2802 81 2 0.0000000000000000e+00 -1.5247384478698950e+02 -6.5322462195147395e+01 -2.3544546522332504e+02 0 0 0
6321 181 4 0.0000000000000000e+00 -3.6797285729595274e+01 -1.3105748013976606e+02 -2.2038597922832551e+02 0 0 0
6320 181 4 0.0000000000000000e+00 -3.8408088731150073e+01 -1.3192717581104642e+02 -2.1015833317641261e+02 0 0 0
2091 60 2 0.0000000000000000e+00 -3.1510968529400806e+01 -8.9322467258405780e+01 -2.1548262004554002e+02 0 0 0
2804 81 1 0.0000000000000000e+00 -1.4954693120478055e+02 -6.9274286038595818e+01 -2.1649307547844037e+02 0 0 0
2805 81 2 0.0000000000000000e+00 -1.5337361688003440e+02 -7.4184471739380712e+01 -2.0876746771629578e+02 0 0 0
6330 181 4 0.0000000000000000e+00 -4.4813307387367139e+01 -7.1042367212777094e+01 -2.1491028076124474e+02 0 0 0
6331 181 4 0.0000000000000000e+00 -3.5832328654352509e+01 -7.4227870531677894e+01 -2.1283298946818769e+02 0 0 0
2487 72 2 0.0000000000000000e+00 -9.9418653368728755e+01 -1.1416341301174006e+01 -2.0889223081044173e+02 0 0 0
482 14 2 0.0000000000000000e+00 -4.9147787453923051e+01 8.9165264116085829e+00 -2.1602705604287078e+02 0 0 0
483 14 2 0.0000000000000000e+00 -4.6606079105146939e+01 2.9158905021156891e+00 -2.0862714615552079e+02 0 0 0
6021 173 4 0.0000000000000000e+00 -3.9966561270739149e+01 1.0742054264250132e+01 -2.1824822601437270e+02 0 0 0
2491 72 2 0.0000000000000000e+00 -9.4717887914899123e+01 1.2782571032965807e+01 -2.1189200747815570e+02 0 0 0
481 14 2 0.0000000000000000e+00 -5.1911193291428532e+01 1.8410791105735530e+01 -2.1350682339246040e+02 0 0 0
6319 181 4 0.0000000000000000e+00 -3.9151676332749936e+01 -1.3226294361536299e+02 -2.0017986409846520e+02 0 0 0
2090 60 1 0.0000000000000000e+00 -3.2661746851933920e+01 -8.3679048886273435e+01 -2.0731768664900071e+02 0 0 0
2806 81 2 0.0000000000000000e+00 -1.5683201894288783e+02 -7.9329113034345511e+01 -2.0064793519892748e+02 0 0 0
2088 60 2 0.0000000000000000e+00 -4.9433811434206646e+01 -7.6592943176543372e+01 -1.9987022446808294e+02 0 0 0
2089 60 2 0.0000000000000000e+00 -4.0315219725457140e+01 -7.9783462838830218e+01 -2.0235345326164827e+02 0 0 0
2486 72 2 0.0000000000000000e+00 -9.0724088354691574e+01 -1.4920548515502322e+01 -2.0649579202954342e+02 0 0 0
6195 177 4 0.0000000000000000e+00 -1.4370358959962556e+02 -6.4585127405953147e+00 -1.9595860020277533e+02 0 0 0
2488 72 2 0.0000000000000000e+00 -1.0839231930342159e+02 -7.7655327094202251e+00 -2.0673805546306542e+02 0 0 0
2489 72 1 0.0000000000000000e+00 -1.0640432361907227e+02 1.2904600922942151e+00 -2.0215525202189036e+02 0 0 0
6177 177 4 0.0000000000000000e+00 -1.1201520505340410e+02 9.9114527206460004e+00 -1.9544601635461140e+02 0 0 0
2490 72 2 0.0000000000000000e+00 -9.9688531749571140e+01 8.1264376471632715e+00 -2.0418806590539236e+02 0 0 0
484 14 2 0.0000000000000000e+00 -4.4606123767667341e+01 4.1543009590399045e+00 -1.9920877826196772e+02 0 0 0
6176 177 4 0.0000000000000000e+00 -1.1761186530550981e+02 1.8151649167146854e+01 -1.9485659589364880e+02 0 0 0
2492 72 2 0.0000000000000000e+00 -8.9002429379826182e+01 1.7001013293724831e+01 -2.0448961153324805e+02 0 0 0
2493 72 2 0.0000000000000000e+00 -8.1754588808389272e+01 2.3240972965856759e+01 -2.0061452195070387e+02 0 0 0
6023 173 4 0.0000000000000000e+00 -4.5857717027707956e+01 2.0792052329329813e+01 -2.0584131512563130e+02 0 0 0
480 14 1 0.0000000000000000e+00 -5.4734750380259158e+01 2.5186988932897709e+01 -2.0643885595718260e+02 0 0 0
6022 173 4 0.0000000000000000e+00 -4.0736832853498505e+01 1.2213668703689779e+01 -2.0783734876955231e+02 0 0 0
1612 47 2 0.0000000000000000e+00 -3.0748106885864591e+01 -1.4526446642698141e+02 -1.9066894020931190e+02 0 0 0
6318 181 3 0.0000000000000000e+00 -4.1035024781601578e+01 -1.3362665871016000e+02 -1.8998070230698207e+02 0 0 0
1614 47 1 0.0000000000000000e+00 -3.2555650379751150e+01 -1.2692871872908806e+02 -1.8693827423755795e+02 0 0 0
1615 47 2 0.0000000000000000e+00 -3.6499953845473115e+01 -1.1995417437695313e+02 -1.9267959496575307e+02 0 0 0
1616 47 2 0.0000000000000000e+00 -3.6161275724796262e+01 -1.1468492039057142e+02 -1.8443605439228708e+02 0 0 0
5432 156 4 0.0000000000000000e+00 -4.7008369586379004e+01 -9.7881150148377174e+01 -1.8235811532195726e+02 0 0 0
5433 156 4 0.0000000000000000e+00 -3.8216262470304059e+01 -9.6459848929794575e+01 -1.8617873142147002e+02 0 0 0
2808 81 2 0.0000000000000000e+00 -1.5937559889066205e+02 -9.3534672072783721e+01 -1.8718636616211035e+02 0 0 0
2807 81 2 0.0000000000000000e+00 -1.6007836547675623e+02 -8.6712854157331449e+01 -1.9425414468239418e+02 0 0 0
2086 60 2 0.0000000000000000e+00 -5.8902848731659375e+01 -8.3492824101410861e+01 -1.8497251369602881e+02 0 0 0
2087 60 2 0.0000000000000000e+00 -5.2607865259302628e+01 -8.2987438748671309e+01 -1.9336618588343504e+02 0 0 0
5434 156 4 0.0000000000000000e+00 -3.0499552212006456e+01 -9.0643772281854368e+01 -1.8320896352780170e+02 0 0 0
5565 159 4 0.0000000000000000e+00 -1.3382738422666785e+02 -7.1929410309269485e+01 -1.8367425967974438e+02 0 0 0
4744 136 4 0.0000000000000000e+00 -4.1600085538555454e+01 -5.8415836561060623e+01 -1.8114219915177048e+02 0 0 0
4745 136 4 0.0000000000000000e+00 -4.4536183129444098e+01 -4.9153275405823607e+01 -1.8281141141500902e+02 0 0 0
4746 136 4 0.0000000000000000e+00 -4.9318338478135807e+01 -4.0318136784005134e+01 -1.8446848920921997e+02 0 0 0
4748 136 4 0.0000000000000000e+00 -3.3283454709824269e+01 -2.9883192276767666e+01 -1.8318618331567512e+02 0 0 0
6544 187 4 0.0000000000000000e+00 -1.0740864756514183e+02 -1.9430151824339486e+01 -1.8390871075277039e+02 0 0 0
4749 136 4 0.0000000000000000e+00 -3.7290119715070723e+01 -2.0613504998570967e+01 -1.8336741465084532e+02 0 0 0
6545 187 4 0.0000000000000000e+00 -1.0041678724679903e+02 -1.4699518340841186e+01 -1.8902775916422078e+02 0 0 0
4751 136 4 0.0000000000000000e+00 -5.3279175150636263e+01 -1.2309241442652112e+01 -1.8544071259631917e+02 0 0 0
1642 47 1 0.0000000000000000e+00 -3.8831559520258523e+01 -7.5940334658268895e+00 -1.8291634687557692e+02 0 0 0
1643 47 2 0.0000000000000000e+00 -3.5881168727663798e+01 -1.1055982916443286e+01 -1.9178160770035345e+02 0 0 0
6194 177 4 0.0000000000000000e+00 -1.4327612817843377e+02 7.4306798748690761e-01 -1.8985658157169377e+02 0 0 0
6193 177 4 0.0000000000000000e+00 -1.4592628214254663e+02 1.0246918234907215e+01 -1.8708879487029429e+02 0 0 0
6178 177 3 0.0000000000000000e+00 -1.1182118312833845e+02 1.3235900843984824e-01 -1.9212378375308481e+02 0 0 0
6179 177 4 0.0000000000000000e+00 -1.1014238336025096e+02 3.5972524729214417e+00 -1.8301270125663561e+02 0 0 0
1756 51 2 0.0000000000000000e+00 -6.1512064284378418e+01 9.5107620986130339e+00 -1.8856845698388346e+02 0 0 0
485 14 2 0.0000000000000000e+00 -3.6885190935799507e+01 6.4848666421170642e-01 -1.9309996228143459e+02 0 0 0
1719 50 1 0.0000000000000000e+00 -1.5833715645634297e+02 1.7800562741608051e+01 -1.8592102584947779e+02 0 0 0
6192 177 3 0.0000000000000000e+00 -1.4802445797349813e+02 1.8540737000671491e+01 -1.8183430101366153e+02 0 0 0
5915 169 4 0.0000000000000000e+00 -8.3507999929774158e+01 1.5597328628895825e+01 -1.9215982516456381e+02 0 0 0
5914 169 4 0.0000000000000000e+00 -7.6473338831949590e+01 2.0647122189102106e+01 -1.8722080535760483e+02 0 0 0
1757 51 2 0.0000000000000000e+00 -5.4279495881845705e+01 1.5538437988300668e+01 -1.9289694883885710e+02 0 0 0
1758 51 2 0.0000000000000000e+00 -4.6922821329285441e+01 2.0016315494375931e+01 -1.8850001795983397e+02 0 0 0
1760 51 2 0.0000000000000000e+00 -3.4503346374762529e+01 2.4286844932320172e+01 -1.9468858603989264e+02 0 0 0
1759 51 2 0.0000000000000000e+00 -3.7771608085461324e+01 1.7937472321455541e+01 -1.8748722431594692e+02 0 0 0
6317 181 4 0.0000000000000000e+00 -4.1380099432734646e+01 -1.3192589663408609e+02 -1.8048863941018851e+02 0 0 0
6316 181 4 0.0000000000000000e+00 -3.3942446033230979e+01 -1.2646001769298243e+02 -1.7749819830294598e+02 0 0 0
2810 81 2 0.0000000000000000e+00 -1.5240863179662426e+02 -9.8800071720861951e+01 -1.6946943119023786e+02 0 0 0
6257 179 4 0.0000000000000000e+00 -1.0179902060143507e+02 -9.5953848667564841e+01 -1.6696287753016423e+02 0 0 0
5431 156 4 0.0000000000000000e+00 -5.1037612677602894e+01 -1.0270300217186649e+02 -1.7399916916755356e+02 0 0 0
5430 156 4 0.0000000000000000e+00 -5.6946467943697023e+01 -9.8537323496858420e+01 -1.6770332150012777e+02 0 0 0
1617 47 2 0.0000000000000000e+00 -3.5475700770074027e+01 -1.0544574554090809e+02 -1.8010276682360239e+02 0 0 0
1618 47 2 0.0000000000000000e+00 -3.9325540579348598e+01 -9.9699001117505745e+01 -1.7256343333730089e+02 0 0 0
2809 81 2 0.0000000000000000e+00 -1.5555059723830087e+02 -9.5374202993828391e+01 -1.7819690798102724e+02 0 0 0
6256 179 4 0.0000000000000000e+00 -9.5090560796449296e+01 -8.8960625295819995e+01 -1.6901933718791875e+02 0 0 0
2084 60 2 0.0000000000000000e+00 -7.4218600121729935e+01 -9.1695888991893099e+01 -1.7767444637945238e+02 0 0 0
2083 60 1 0.0000000000000000e+00 -8.0992965309859613e+01 -8.6225471668138795e+01 -1.7369951339499693e+02 0 0 0
2085 60 2 0.0000000000000000e+00 -6.6880542213020178e+01 -8.7198785978358870e+01 -1.8053219563224300e+02 0 0 0
1620 47 2 0.0000000000000000e+00 -5.4580921375295567e+01 -8.8060144840414253e+01 -1.7338962370167422e+02 0 0 0
1619 47 2 0.0000000000000000e+00 -4.7092502517656662e+01 -9.3692614242500312e+01 -1.7011217614600173e+02 0 0 0
5563 159 4 0.0000000000000000e+00 -1.4102201806778154e+02 -7.4803617243051164e+01 -1.6757008866642718e+02 0 0 0
5564 159 4 0.0000000000000000e+00 -1.3573168913557589e+02 -6.9222710941124433e+01 -1.7401127453449470e+02 0 0 0
6255 179 3 0.0000000000000000e+00 -9.0183341209468836e+01 -8.0093889074491770e+01 -1.7060003342918750e+02 0 0 0
2082 60 2 0.0000000000000000e+00 -7.4738333606472708e+01 -7.8924105531928390e+01 -1.7642922586402972e+02 0 0 0
4742 136 4 0.0000000000000000e+00 -3.2481104051292931e+01 -7.1305287861311172e+01 -1.6921522004416860e+02 0 0 0
2933 84 2 0.0000000000000000e+00 -1.2102152804932224e+02 -5.8914581420455448e+01 -1.7335038052787334e+02 0 0 0
4743 136 3 0.0000000000000000e+00 -3.5799368622535539e+01 -6.2845153553124021e+01 -1.7418368568155554e+02 0 0 0
2931 84 2 0.0000000000000000e+00 -1.2645077903178245e+02 -4.2660471078965102e+01 -1.7969080001675613e+02 0 0 0
2932 84 2 0.0000000000000000e+00 -1.2047017954970271e+02 -5.0595232206608316e+01 -1.7835993535478246e+02 0 0 0
2070 60 2 0.0000000000000000e+00 -4.4657852456120871e+01 -5.0742515478729665e+01 -1.7376366677460391e+02 0 0 0
2071 60 2 0.0000000000000000e+00 -5.2087259189430064e+01 -4.4339608502597791e+01 -1.7635058094121175e+02 0 0 0
2069 60 1 0.0000000000000000e+00 -3.7121928084071918e+01 -5.4090781621912761e+01 -1.6761818191942950e+02 0 0 0
2930 84 1 0.0000000000000000e+00 -1.2871219370676533e+02 -3.2496526644446980e+01 -1.7855143579845736e+02 0 0 0
2929 84 2 0.0000000000000000e+00 -1.2849145398143133e+02 -3.1202288757579034e+01 -1.6831671880331055e+02 0 0 0
6542 187 3 0.0000000000000000e+00 -1.1798443214968830e+02 -3.0947264627053119e+01 -1.7785923924712725e+02 0 0 0
6541 187 4 0.0000000000000000e+00 -1.1733088073720579e+02 -3.9025843341909926e+01 -1.7176866057060556e+02 0 0 0
6530 187 4 0.0000000000000000e+00 -1.0604575143370340e+02 -3.4432179278025963e+01 -1.7269298795130103e+02 0 0 0
6531 187 4 0.0000000000000000e+00 -9.6550814923753038e+01 -3.3477887144301491e+01 -1.7069576046544137e+02 0 0 0
6532 187 4 0.0000000000000000e+00 -8.7745542152411019e+01 -3.5190336989243846e+01 -1.7395795081521504e+02 0 0 0
2072 60 2 0.0000000000000000e+00 -5.6378585465053476e+01 -3.9377412329698764e+01 -1.6823200549593480e+02 0 0 0
4747 136 4 0.0000000000000000e+00 -4.2435520015883434e+01 -3.3322479128602069e+01 -1.8051971386010200e+02 0 0 0
1540 44 2 0.0000000000000000e+00 -1.3752051937923684e+02 -2.2641749825157429e+01 -1.7117473384728834e+02 0 0 0
1539 44 2 0.0000000000000000e+00 -1.2812827671016470e+02 -2.2744913824069407e+01 -1.7380006715671445e+02 0 0 0
1538 44 2 0.0000000000000000e+00 -1.2045205696968408e+02 -1.7547406894208542e+01 -1.6964230010257742e+02 0 0 0
6543 187 4 0.0000000000000000e+00 -1.1224609562528445e+02 -2.2922633548625580e+01 -1.7616126841320812e+02 0 0 0
4750 136 3 0.0000000000000000e+00 -4.5853300117970733e+01 -1.5785010617650999e+01 -1.8016029286827018e+02 0 0 0
4754 136 4 0.0000000000000000e+00 -7.3355093686927546e+01 -1.9386165686071097e+00 -1.7070801074581206e+02 0 0 0
4752 136 4 0.0000000000000000e+00 -6.1498360527406334e+01 -9.2149374272723996e+00 -1.8062540393067599e+02 0 0 0
4753 136 4 0.0000000000000000e+00 -7.0779002708866983e+01 -7.5419892650688558e+00 -1.7811798616964086e+02 0 0 0
1641 47 2 0.0000000000000000e+00 -4.1699561911348759e+01 -9.3153784343082844e+00 -1.7276210065345495e+02 0 0 0
1723 50 2 0.0000000000000000e+00 -1.7605447235077978e+02 1.0897710324931881e+01 -1.6862839463778590e+02 0 0 0
1720 50 2 0.0000000000000000e+00 -1.6303840655057343e+02 1.0972529373496080e+01 -1.8074084277294841e+02 0 0 0
1721 50 2 0.0000000000000000e+00 -1.6336064074877197e+02 1.1325358940036441e+00 -1.7821379972318394e+02 0 0 0
1722 50 2 0.0000000000000000e+00 -1.6734603569859379e+02 7.5675030459742452e+00 -1.7136188470055629e+02 0 0 0
6180 177 4 0.0000000000000000e+00 -1.1489471498706378e+02 7.5697584274121734e+00 -1.7513876064084579e+02 0 0 0
1755 51 2 0.0000000000000000e+00 -5.6854968470065714e+01 5.9287770502105408e+00 -1.8000726064641321e+02 0 0 0
1754 51 1 0.0000000000000000e+00 -5.7234154522020276e+01 3.9083451505567903e+00 -1.7014292811546611e+02 0 0 0
3745 107 4 0.0000000000000000e+00 -1.9880475606819169e+02 1.7756668483423173e+01 -1.7302209115254877e+02 0 0 0
1724 50 2 0.0000000000000000e+00 -1.8147301165110167e+02 1.9453956837393743e+01 -1.6726745465101993e+02 0 0 0
6191 177 4 0.0000000000000000e+00 -1.5178226864368128e+02 2.4812336678966918e+01 -1.7450705798582246e+02 0 0 0
1716 50 2 0.0000000000000000e+00 -1.3756070237658679e+02 2.4308472790638987e+01 -1.8045163141060823e+02 0 0 0
4760 136 4 0.0000000000000000e+00 -4.6137103857900378e+01 1.3084227159472873e+01 -1.7252791248101803e+02 0 0 0
4758 136 4 0.0000000000000000e+00 -5.5860941268941545e+01 2.3144529185943259e+01 -1.7081071876332314e+02 0 0 0
4759 136 4 0.0000000000000000e+00 -4.6577852884693016e+01 2.1972176140209559e+01 -1.6792948052332491e+02 0 0 0
2812 81 2 0.0000000000000000e+00 -1.4135786561789868e+02 -1.1142742135650289e+02 -1.6039229290123953e+02 0 0 0
3011 87 2 0.0000000000000000e+00 -3.0449905089038843e+01 -1.1785428377387655e+02 -1.6162116752903179e+02 0 0 0
2811 81 1 0.0000000000000000e+00 -1.4770384857716337e+02 -1.0559662677990390e+02 -1.6457984603625894e+02 0 0 0
6263 179 4 0.0000000000000000e+00 -1.4716724737662318e+02 -9.6651230585361375e+01 -1.5592304515174052e+02 0 0 0
6261 179 4 0.0000000000000000e+00 -1.2940564385018016e+02 -1.0372505600366296e+02 -1.5857998733015191e+02 0 0 0
6262 179 3 0.0000000000000000e+00 -1.3892593050727766e+02 -1.0101325508117559e+02 -1.5834676522567759e+02 0 0 0
6260 179 4 0.0000000000000000e+00 -1.1994131743876147e+02 -1.0682965686210061e+02 -1.5998325403777471e+02 0 0 0
6259 179 4 0.0000000000000000e+00 -1.1406616606959487e+02 -1.0039238931652604e+02 -1.5462965776590133e+02 0 0 0
6258 179 4 0.0000000000000000e+00 -1.0512121953061114e+02 -1.0053885059009879e+02 -1.5878284779826433e+02 0 0 0
5426 156 4 0.0000000000000000e+00 -8.2400877852054933e+01 -1.0375267126339318e+02 -1.5653460377013062e+02 0 0 0
2100 60 2 0.0000000000000000e+00 -3.3061380551370426e+01 -1.0458902084488290e+02 -1.6159516626310034e+02 0 0 0
6265 179 4 0.0000000000000000e+00 -1.5950209530219811e+02 -8.5962472666434252e+01 -1.6565497047614642e+02 0 0 0
6264 179 4 0.0000000000000000e+00 -1.5568597604380105e+02 -9.3942848685656031e+01 -1.5990595289767666e+02 0 0 0
5427 156 4 0.0000000000000000e+00 -8.0588075760366337e+01 -9.4336267367593990e+01 -1.5581728095084759e+02 0 0 0
5428 156 4 0.0000000000000000e+00 -7.1927312672353608e+01 -9.0357542509156957e+01 -1.6042209225757543e+02 0 0 0
5429 156 3 0.0000000000000000e+00 -6.2537107005467142e+01 -9.1433054808923458e+01 -1.6408818516277225e+02 0 0 0
1621 47 1 0.0000000000000000e+00 -5.2188414256726020e+01 -8.6792768775959516e+01 -1.6343250626109935e+02 0 0 0
1622 47 2 0.0000000000000000e+00 -4.5979526729442178e+01 -8.5422477512539359e+01 -1.5589423233568985e+02 0 0 0
4740 136 4 0.0000000000000000e+00 -3.4876985523057137e+01 -8.7063739637785019e+01 -1.5778715223613193e+02 0 0 0
5562 159 3 0.0000000000000000e+00 -1.3907466229519889e+02 -7.8026159080345792e+01 -1.5909333831475595e+02 0 0 0
2935 84 2 0.0000000000000000e+00 -1.3201551662692182e+02 -6.9265400551819084e+01 -1.6121789041812576e+02 0 0 0
6254 179 4 0.0000000000000000e+00 -9.4019426712686638e+01 -7.6431820384734024e+01 -1.6159481258656442e+02 0 0 0
2081 60 2 0.0000000000000000e+00 -7.6325706912820678e+01 -7.6468989728726768e+01 -1.6673652060474470e+02 0 0 0
2080 60 2 0.0000000000000000e+00 -8.0615886305769763e+01 -7.3095666843819856e+01 -1.5854197289564485e+02 0 0 0
4741 136 4 0.0000000000000000e+00 -3.2621978815898842e+01 -7.8346357305518183e+01 -1.6208370812586867e+02 0 0 0
2936 84 2 0.0000000000000000e+00 -1.4248408339632456e+02 -6.8715899155488032e+01 -1.6031841073990162e+02 0 0 0
2934 84 2 0.0000000000000000e+00 -1.2388113491716813e+02 -6.5106742674649468e+01 -1.6578253945052367e+02 0 0 0
2068 60 2 0.0000000000000000e+00 -3.0704586848831568e+01 -5.6662518792890054e+01 -1.6105784975269796e+02 0 0 0
2535 73 2 0.0000000000000000e+00 -1.4501515518160252e+02 -3.7399918468486298e+01 -1.5775314348314126e+02 0 0 0
6540 187 4 0.0000000000000000e+00 -1.1777862659700548e+02 -3.8810976447332571e+01 -1.6141829677997120e+02 0 0 0
6529 187 4 0.0000000000000000e+00 -1.0961234318192403e+02 -2.8395551306580199e+01 -1.6494943493664164e+02 0 0 0
6533 187 4 0.0000000000000000e+00 -8.0694678889154531e+01 -3.4724588382385960e+01 -1.6678230450793271e+02 0 0 0
6534 187 4 0.0000000000000000e+00 -7.9966699834542652e+01 -3.3598483060922760e+01 -1.5710972680290988e+02 0 0 0
2073 60 2 0.0000000000000000e+00 -6.0532787415817310e+01 -3.5474057310804483e+01 -1.6045914022960426e+02 0 0 0
2928 84 2 0.0000000000000000e+00 -1.3003461943652627e+02 -2.7596473484176887e+01 -1.5908169968492132e+02 0 0 0
2927 84 2 0.0000000000000000e+00 -1.3620567588813577e+02 -2.0106820268531497e+01 -1.5771863736622092e+02 0 0 0
6528 187 3 0.0000000000000000e+00 -1.1383255196209528e+02 -2.1133800989988355e+01 -1.5961473376241773e+02 0 0 0
6527 187 4 0.0000000000000000e+00 -1.2369669822896249e+02 -2.0574993048749018e+01 -1.5647967086076645e+02 0 0 0
5089 146 4 0.0000000000000000e+00 -3.2810035840595638e+01 -2.3830293414405141e+01 -1.5702685969766281e+02 0 0 0
3711 107 4 0.0000000000000000e+00 -1.4865019371325002e+02 -5.3820917445984051e+00 -1.6024369104997538e+02 0 0 0
2926 84 2 0.0000000000000000e+00 -1.3886001931878141e+02 -1.0387647015868234e+01 -1.5498565460628129e+02 0 0 0
1537 44 1 0.0000000000000000e+00 -1.1910447852435888e+02 -1.1790707316707534e+01 -1.6194834368660082e+02 0 0 0
1536 44 2 0.0000000000000000e+00 -1.1095337009839004e+02 -7.4018802611927264e+00 -1.5844469111759079e+02 0 0 0
1751 51 2 0.0000000000000000e+00 -7.9708974581863188e+01 -2.4223678985268826e+00 -1.5903755888204037e+02 0 0 0
1752 51 2 0.0000000000000000e+00 -7.0905223632334710e+01 -6.8966615098752477e+00 -1.5872978892976400e+02 0 0 0
1753 51 2 0.0000000000000000e+00 -6.4293132955558406e+01 -1.7791915901040840e+00 -1.6508189563007303e+02 0 0 0
1640 47 2 0.0000000000000000e+00 -4.2478476290938389e+01 -7.2847181347491672e+00 -1.6310613095269022e+02 0 0 0
6181 177 4 0.0000000000000000e+00 -1.2016295114363146e+02 4.8081452467195360e+00 -1.6678635284185353e+02 0 0 0
6182 177 4 0.0000000000000000e+00 -1.2411952001550908e+02 1.7540600171462850e+00 -1.5771798945216182e+02 0 0 0
1535 44 2 0.0000000000000000e+00 -1.0416648405462779e+02 -3.2201426390299492e-01 -1.5670542183288867e+02 0 0 0
1534 44 2 0.0000000000000000e+00 -9.6286104981455395e+01 6.4294073732537829e+00 -1.5501420217454492e+02 0 0 0
1533 44 2 0.0000000000000000e+00 -8.7224124731874667e+01 3.0670932957016048e+00 -1.5347810311172591e+02 0 0 0
4755 136 4 0.0000000000000000e+00 -7.2386281833461723e+01 7.2471040656288706e+00 -1.6685915133505608e+02 0 0 0
4756 136 4 0.0000000000000000e+00 -6.2404684343376942e+01 7.8752577915020119e+00 -1.6278488330790043e+02 0 0 0
3744 107 4 0.0000000000000000e+00 -1.9725194247611938e+02 2.2351444892464087e+01 -1.6427197156429702e+02 0 0 0
5902 169 4 0.0000000000000000e+00 -1.2369487080761380e+02 1.9559743575196784e+01 -1.5693500360627814e+02 0 0 0
5910 169 4 0.0000000000000000e+00 -8.2005104464327943e+01 2.1204703923482011e+01 -1.5660220984694368e+02 0 0 0
5911 169 4 0.0000000000000000e+00 -7.8188677640791084e+01 1.8444442161572404e+01 -1.6506980315607845e+02 0 0 0
4757 136 3 0.0000000000000000e+00 -5.5451737138458640e+01 1.4023153751100608e+01 -1.6592812584828738e+02 0 0 0
6196 178 4 0.0000000000000000e+00 -3.4727210422810963e+01 2.2104874395187995e+01 -1.6680947904399042e+02 0 0 0
1366 40 2 0.0000000000000000e+00 -1.0164850277786348e+02 -1.3985259180896594e+02 -1.5123928937484408e+02 0 0 0
1367 40 2 0.0000000000000000e+00 -9.7186678843887861e+01 -1.3322673023803085e+02 -1.4614371740848537e+02 0 0 0
1368 40 2 0.0000000000000000e+00 -9.1613726598737998e+01 -1.2716098236327321e+02 -1.4125046515457493e+02 0 0 0
2813 81 2 0.0000000000000000e+00 -1.3849750798356578e+02 -1.1680231896526081e+02 -1.5273421254167280e+02 0 0 0
2814 81 2 0.0000000000000000e+00 -1.3143930445878465e+02 -1.1745924056378172e+02 -1.4567974050670327e+02 0 0 0
1369 40 1 0.0000000000000000e+00 -9.2044220998329749e+01 -1.1758381875007889e+02 -1.4317991605251009e+02 0 0 0
1370 40 2 0.0000000000000000e+00 -8.9800311231332302e+01 -1.0857606552326131e+02 -1.4719334792154180e+02 0 0 0
1371 40 2 0.0000000000000000e+00 -9.4248345551184713e+01 -1.0078074192297024e+02 -1.4257303626925838e+02 0 0 0
5560 159 4 0.0000000000000000e+00 -1.4405349886914615e+02 -8.6270583831482881e+01 -1.4184744047882307e+02 0 0 0
6251 179 4 0.0000000000000000e+00 -1.0779232461772658e+02 -8.6634716063217454e+01 -1.4145003688388906e+02 0 0 0
2631 76 2 0.0000000000000000e+00 -3.7661208895784320e+01 -9.2911822254249842e+01 -1.4153191892450002e+02 0 0 0
5561 159 4 0.0000000000000000e+00 -1.4339835965279852e+02 -8.2167432031188852e+01 -1.5147077262285950e+02 0 0 0
2938 84 2 0.0000000000000000e+00 -1.4803846191834458e+02 -7.5296252661618638e+01 -1.4357086532325843e+02 0 0 0
2937 84 1 0.0000000000000000e+00 -1.4167405108017863e+02 -7.1827847014949626e+01 -1.5058059757545300e+02 0 0 0
6252 179 4 0.0000000000000000e+00 -1.0118836187261958e+02 -8.1960498712735898e+01 -1.4748957517878833e+02 0 0 0
6253 179 4 0.0000000000000000e+00 -9.3123158758970533e+01 -8.0391188269582528e+01 -1.5278618218260846e+02 0 0 0
2079 60 2 0.0000000000000000e+00 -7.4727023669949503e+01 -7.0037341168879720e+01 -1.5195483155093731e+02 0 0 0
1623 47 2 0.0000000000000000e+00 -4.4404402195804217e+01 -8.0838210530104291e+01 -1.4751265251328923e+02 0 0 0
1624 47 2 0.0000000000000000e+00 -4.2094372703112377e+01 -7.3668676026529013e+01 -1.4036140057429674e+02 0 0 0
5543 159 4 0.0000000000000000e+00 -8.6264724216915468e+01 -5.8454471858560325e+01 -1.4052079522323370e+02 0 0 0
2078 60 2 0.0000000000000000e+00 -6.9282661660014028e+01 -6.6572444634008534e+01 -1.4436155714716884e+02 0 0 0
2537 73 2 0.0000000000000000e+00 -1.5653964408417735e+02 -4.4080182027049013e+01 -1.4678674934930362e+02 0 0 0
2536 73 2 0.0000000000000000e+00 -1.4635361748724907e+02 -4.2515142832824360e+01 -1.4914822802653933e+02 0 0 0
3732 107 4 0.0000000000000000e+00 -1.4709980719460370e+02 -5.0054319091029299e+01 -1.4022463082610335e+02 0 0 0
5542 159 4 0.0000000000000000e+00 -7.7613864197724638e+01 -5.3251907854920383e+01 -1.4070309688300097e+02 0 0 0
5541 159 3 0.0000000000000000e+00 -6.9298018193372329e+01 -4.7065405817155728e+01 -1.3950722515081728e+02 0 0 0
2075 60 2 0.0000000000000000e+00 -6.1099760896412498e+01 -4.4262365417097840e+01 -1.4467025658058481e+02 0 0 0
1400 40 2 0.0000000000000000e+00 -1.8906377888303786e+02 -3.0409546704508937e+01 -1.4220668294952875e+02 0 0 0
2538 73 1 0.0000000000000000e+00 -1.6429626148970274e+02 -4.1194120609194989e+01 -1.4180540645593368e+02 0 0 0
2534 73 2 0.0000000000000000e+00 -1.3929200202910565e+02 -3.1917131650087661e+01 -1.5220693746178446e+02 0 0 0
6539 187 4 0.0000000000000000e+00 -1.1703305172268074e+02 -3.8097779334547106e+01 -1.5148300006463768e+02 0 0 0
6538 187 4 0.0000000000000000e+00 -1.1262422724143254e+02 -4.0339096293950895e+01 -1.4246268441026365e+02 0 0 0
6537 187 4 0.0000000000000000e+00 -1.0396581199246937e+02 -3.6425817768313131e+01 -1.4529791370812237e+02 0 0 0
6536 187 4 0.0000000000000000e+00 -9.3983458080392566e+01 -3.7068803343424655e+01 -1.4543190052641845e+02 0 0 0
6535 187 3 0.0000000000000000e+00 -8.4710477620360763e+01 -3.5571080539324718e+01 -1.4876350547453214e+02 0 0 0
2074 60 2 0.0000000000000000e+00 -5.6536845513834812e+01 -3.8508854872370158e+01 -1.5162974694457321e+02 0 0 0
3737 107 4 0.0000000000000000e+00 -1.7383585850491428e+02 -1.9714324326202860e+01 -1.4321209806679556e+02 0 0 0
927 27 2 0.0000000000000000e+00 -1.5113222976941972e+02 -1.5262624550811955e+01 -1.4084293614726383e+02 0 0 0
926 27 2 0.0000000000000000e+00 -1.4107765984829658e+02 -1.7225528711208113e+01 -1.4120172831081078e+02 0 0 0
2533 73 2 0.0000000000000000e+00 -1.3790559895471242e+02 -2.7010940131353191e+01 -1.4336727075985618e+02 0 0 0
6526 187 4 0.0000000000000000e+00 -1.2098723090248238e+02 -2.7198680178850697e+01 -1.4943321985320742e+02 0 0 0
6525 187 4 0.0000000000000000e+00 -1.1843220708351325e+02 -2.3723072662588198e+01 -1.3947921349333078e+02 0 0 0
5088 146 4 0.0000000000000000e+00 -3.6664290979764644e+01 -1.8948911020105090e+01 -1.4941207239236383e+02 0 0 0
5087 146 4 0.0000000000000000e+00 -3.6581311587389230e+01 -2.1190062499753150e+01 -1.4016927164099141e+02 0 0 0
3739 107 4 0.0000000000000000e+00 -1.8262066647486247e+02 -1.8717276400457128e+00 -1.4696930768622124e+02 0 0 0
3738 107 4 0.0000000000000000e+00 -1.7805734620653189e+02 -1.0944597426512281e+01 -1.4694538587815410e+02 0 0 0
3712 107 4 0.0000000000000000e+00 -1.5546611511829141e+02 -4.6619056825417715e+00 -1.5252874650184154e+02 0 0 0
3713 107 4 0.0000000000000000e+00 -1.5263895927376174e+02 -4.6995174954422199e+00 -1.4252703650590360e+02 0 0 0
2925 84 2 0.0000000000000000e+00 -1.4154888246634923e+02 -1.5969784479382312e+00 -1.5230487825334075e+02 0 0 0
6184 177 4 0.0000000000000000e+00 -1.3563373528251563e+02 -1.6411453643142555e+00 -1.4211302656039447e+02 0 0 0
1639 47 2 0.0000000000000000e+00 -4.3380702585617414e+01 -8.1446679052891753e+00 -1.5293208702132952e+02 0 0 0
1638 47 2 0.0000000000000000e+00 -3.4725273385766293e+01 -7.1329037033996103e+00 -1.4737952692811729e+02 0 0 0
3740 107 4 0.0000000000000000e+00 -1.8356399129397636e+02 8.1484874724319667e+00 -1.4663316714527511e+02 0 0 0
2924 84 2 0.0000000000000000e+00 -1.4516736511917847e+02 1.9526525883218018e+00 -1.4385592245185339e+02 0 0 0
6183 177 4 0.0000000000000000e+00 -1.2954887964344479e+02 1.5116390454433428e+00 -1.4954565618159435e+02 0 0 0
1532 44 2 0.0000000000000000e+00 -7.8690281696416790e+01 -1.1960833529842754e+00 -1.4954827789721799e+02 0 0 0
1531 44 2 0.0000000000000000e+00 -7.1491331557790161e+01 1.5682972543107720e-01 -1.4295178637946114e+02 0 0 0
3742 107 3 0.0000000000000000e+00 -1.9050406950606913e+02 2.2312347561070425e+01 -1.5038146163887970e+02 0 0 0
3741 107 4 0.0000000000000000e+00 -1.8216955649918407e+02 1.6405308814730500e+01 -1.5191201807889061e+02 0 0 0
6187 177 4 0.0000000000000000e+00 -1.3768592287561316e+02 2.3980164487998010e+01 -1.4793353129176225e+02 0 0 0
6186 177 4 0.0000000000000000e+00 -1.3999781700485639e+02 1.5205215423330197e+01 -1.4456297843096945e+02 0 0 0
5901 169 4 0.0000000000000000e+00 -1.2237495943959757e+02 1.9130102952648908e+01 -1.4693923586046623e+02 0 0 0
5909 169 4 0.0000000000000000e+00 -8.6002119679498080e+01 2.3884961145981155e+01 -1.4783290228505339e+02 0 0 0
5908 169 4 0.0000000000000000e+00 -9.6226772648522001e+01 2.4971682364930171e+01 -1.4534058464882159e+02 0 0 0
5533 159 4 0.0000000000000000e+00 -5.9978061090484154e+01 2.2158526886217260e+01 -1.4429708042804197e+02 0 0 0
2815 81 2 0.0000000000000000e+00 -1.2687415280593395e+02 -1.1440098020497980e+02 -1.3739497092593584e+02 0 0 0
6244 179 4 0.0000000000000000e+00 -1.0128751786771890e+02 -1.1418859747824548e+02 -1.2895016081171033e+02 0 0 0