LAMMPS data file via write_data, version 5 Jun 2019, timestep = 400000000

7000 atoms
4 atom types
7261 bonds
3 bond types
6600 angles
2 angle types

-5.0000000000000000e+02 5.0000000000000000e+02 xlo xhi
-5.0000000000000000e+02 5.0000000000000000e+02 ylo yhi
-5.0000000000000000e+02 5.0000000000000000e+02 zlo zhi

Masses

1 1000
2 1000
3 1000
4 1000

Pair Coeffs # lj/cut

1 0.178 10
2 0.178 10
3 0.178 10
4 0.178 10

Angle Coeffs # cosine

1 2
2 2

Atoms # full

1611 47 2 0.0000000000000000e+00 -9.5500207442580248e+01 -1.1974889256425151e+02 -2.6505138617117927e+02 0 0 0
1612 47 2 0.0000000000000000e+00 -8.8119799856946955e+01 -1.2330345454868424e+02 -2.6001541770656621e+02 0 0 0
1613 47 2 0.0000000000000000e+00 -7.9676479277893478e+01 -1.2148112463402659e+02 -2.5606658702771557e+02 0 0 0
6318 181 3 0.0000000000000000e+00 -8.0207756015295203e+01 -1.1270561798677456e+02 -2.4164729335638941e+02 0 0 0
1614 47 1 0.0000000000000000e+00 -8.2902458940124177e+01 -1.1251688569793562e+02 -2.5233035887151635e+02 0 0 0
1615 47 2 0.0000000000000000e+00 -8.2013378662981040e+01 -1.0323044095720402e+02 -2.5167106358246036e+02 0 0 0
1616 47 2 0.0000000000000000e+00 -8.5775757562322042e+01 -9.6353999161435411e+01 -2.4565448840143503e+02 0 0 0
6315 181 4 0.0000000000000000e+00 -6.1010731562987267e+01 -9.9858211075059174e+01 -2.4290618541069782e+02 0 0 0
6314 181 4 0.0000000000000000e+00 -5.1694899421362642e+01 -9.9240413295705494e+01 -2.4648444794209684e+02 0 0 0
6313 181 4 0.0000000000000000e+00 -4.2775827937384349e+01 -9.8850638653874739e+01 -2.4314529224528840e+02 0 0 0
6312 181 4 0.0000000000000000e+00 -3.8268371721329139e+01 -9.0208068816861044e+01 -2.4389029078057223e+02 0 0 0
1620 47 2 0.0000000000000000e+00 -6.0128157095052707e+01 -7.8296947589984072e+01 -2.4200923646940544e+02 0 0 0
5429 156 3 0.0000000000000000e+00 -4.4500845312142843e+01 -7.3316049160978295e+01 -2.4279851231263720e+02 0 0 0
5430 156 4 0.0000000000000000e+00 -4.3855179141636533e+01 -7.3859014646704466e+01 -2.5304670779446568e+02 0 0 0
5431 156 4 0.0000000000000000e+00 -4.8670571406172066e+01 -6.5431317812425135e+01 -2.5037666254532724e+02 0 0 0
6309 181 4 0.0000000000000000e+00 -3.7183227795456780e+01 -6.7982793703230627e+01 -2.4121370747794742e+02 0 0 0
5433 156 4 0.0000000000000000e+00 -4.8567858000691501e+01 -4.9396657908716392e+01 -2.5273182646309203e+02 0 0 0
5432 156 4 0.0000000000000000e+00 -5.4458907291156336e+01 -5.6986442423085997e+01 -2.5011364828346601e+02 0 0 0
2813 81 2 0.0000000000000000e+00 -8.7666185199926545e+01 -3.4662854516952528e+01 -2.5078388483720286e+02 0 0 0
2814 81 2 0.0000000000000000e+00 -9.5771260055207364e+01 -3.2130742646951653e+01 -2.4576778257078587e+02 0 0 0
5434 156 4 0.0000000000000000e+00 -4.2665701101506563e+01 -4.0402685792160469e+01 -2.5184475155927822e+02 0 0 0
5435 156 4 0.0000000000000000e+00 -3.6213764241982481e+01 -3.7648497708560939e+01 -2.4476485776242413e+02 0 0 0
2812 81 2 0.0000000000000000e+00 -7.8869481310427020e+01 -3.0472951246717091e+01 -2.5039514918572451e+02 0 0 0
2811 81 1 0.0000000000000000e+00 -6.9456757358213451e+01 -2.9446143975547468e+01 -2.4793490019674442e+02 0 0 0
2810 81 2 0.0000000000000000e+00 -5.9486632854885585e+01 -2.8577239036596556e+01 -2.4960572613917958e+02 0 0 0
2809 81 2 0.0000000000000000e+00 -5.0274844213739343e+01 -2.6411248978771784e+01 -2.4750569573704314e+02 0 0 0
2808 81 2 0.0000000000000000e+00 -4.1052679452839797e+01 -2.1935687976774162e+01 -2.4681730638271205e+02 0 0 0
2807 81 2 0.0000000000000000e+00 -3.4913194040170254e+01 -1.5805933300117051e+01 -2.4275028348275114e+02 0 0 0
6319 181 4 0.0000000000000000e+00 -7.4464096111521187e+01 -1.1803238258367205e+02 -2.3516473949094987e+02 0 0 0
6320 181 4 0.0000000000000000e+00 -6.7754401278522195e+01 -1.2119241262359171e+02 -2.2795177694629490e+02 0 0 0
6317 181 4 0.0000000000000000e+00 -7.7353706188996938e+01 -1.0292655244001347e+02 -2.4073789805330043e+02 0 0 0
6316 181 4 0.0000000000000000e+00 -6.8408055357600318e+01 -1.0282344071162456e+02 -2.3636210122768958e+02 0 0 0
1617 47 2 0.0000000000000000e+00 -8.3306681109337845e+01 -8.9859710328312175e+01 -2.3878514442674734e+02 0 0 0
1618 47 2 0.0000000000000000e+00 -7.5930789964461226e+01 -8.5368557834701079e+01 -2.3511382948113447e+02 0 0 0
1619 47 2 0.0000000000000000e+00 -6.9454923906389311e+01 -7.8540645464053966e+01 -2.3852240554680432e+02 0 0 0
1622 47 2 0.0000000000000000e+00 -4.8735433985136936e+01 -8.6491923053149506e+01 -2.3141605855474054e+02 0 0 0
1621 47 1 0.0000000000000000e+00 -5.1993306348029037e+01 -7.8544525457561775e+01 -2.3578672942040245e+02 0 0 0
5428 156 4 0.0000000000000000e+00 -4.3896771624232528e+01 -7.1840942186876561e+01 -2.3266982211970839e+02 0 0 0
6308 181 4 0.0000000000000000e+00 -4.2215281614789454e+01 -5.9166053339348579e+01 -2.4064038244492642e+02 0 0 0
6307 181 4 0.0000000000000000e+00 -4.4199647929066856e+01 -5.3390055592144584e+01 -2.3231237437730667e+02 0 0 0
6306 181 4 0.0000000000000000e+00 -4.3024448205745514e+01 -4.4346257141902981e+01 -2.2835096867847480e+02 0 0 0
2804 81 1 0.0000000000000000e+00 -3.4347931046067011e+01 -3.5491051300352169e+01 -2.2998596795842255e+02 0 0 0
2816 81 2 0.0000000000000000e+00 -1.0560762791677647e+02 -2.6875330303353980e+01 -2.2965409905974013e+02 0 0 0
2815 81 2 0.0000000000000000e+00 -1.0264347577222408e+02 -3.1611418930249336e+01 -2.3770988831396539e+02 0 0 0
2805 81 2 0.0000000000000000e+00 -3.3093780531362420e+01 -2.5844739995676544e+01 -2.2991538675723686e+02 0 0 0
6321 181 4 0.0000000000000000e+00 -5.8204008095276663e+01 -1.2162717442588702e+02 -2.2578416171418493e+02 0 0 0
6322 181 4 0.0000000000000000e+00 -5.0483524110769352e+01 -1.2295115740160936e+02 -2.1962063427515315e+02 0 0 0
6323 181 4 0.0000000000000000e+00 -4.2112731975543923e+01 -1.1783252542294753e+02 -2.2226951597923474e+02 0 0 0
6324 181 4 0.0000000000000000e+00 -3.6547877777568097e+01 -1.0936054318637281e+02 -2.2311451943762253e+02 0 0 0
6325 181 3 0.0000000000000000e+00 -3.3763184680704654e+01 -1.0312158945434835e+02 -2.1616923059181926e+02 0 0 0
2658 76 2 0.0000000000000000e+00 -3.7057423837522315e+01 -9.5832343607102729e+01 -2.2108988097552455e+02 0 0 0
1623 47 2 0.0000000000000000e+00 -5.1854930460202830e+01 -8.0613527459252239e+01 -2.2390081716508649e+02 0 0 0
1624 47 2 0.0000000000000000e+00 -5.7496319146693779e+01 -8.2624139881284506e+01 -2.1552211531633282e+02 0 0 0
5426 156 4 0.0000000000000000e+00 -5.2649115251847576e+01 -7.2436222874913781e+01 -2.1536156973642963e+02 0 0 0
5427 156 4 0.0000000000000000e+00 -4.8634258807792790e+01 -6.9447234619396468e+01 -2.2373706328214996e+02 0 0 0
6265 179 4 0.0000000000000000e+00 -1.0724275649646476e+02 -3.9539923328727717e+01 -2.1445655237291578e+02 0 0 0
5104 146 4 0.0000000000000000e+00 -5.7392960573973191e+01 -3.3949916408843947e+01 -2.1954243781427687e+02 0 0 0
6305 181 4 0.0000000000000000e+00 -4.3083504881147995e+01 -3.8279987881272845e+01 -2.2050231763338732e+02 0 0 0
2803 81 2 0.0000000000000000e+00 -3.4428364212985372e+01 -4.3338692447451308e+01 -2.2436837380332352e+02 0 0 0
2817 81 2 0.0000000000000000e+00 -1.1223258954046194e+02 -2.4387178896378952e+01 -2.2229911063996630e+02 0 0 0
2818 81 1 0.0000000000000000e+00 -1.1266317245837919e+02 -1.9358803256157380e+01 -2.1414016744601687e+02 0 0 0
5103 146 4 0.0000000000000000e+00 -5.3765054859918529e+01 -2.5612314396556499e+01 -2.1531118003863099e+02 0 0 0
485 14 2 0.0000000000000000e+00 -4.5048471895471984e+01 -2.7316093942027884e+01 -2.2176748721133174e+02 0 0 0
486 14 2 0.0000000000000000e+00 -3.6667437168324653e+01 -2.8836468911792853e+01 -2.1606981422155025e+02 0 0 0
483 14 2 0.0000000000000000e+00 -4.6590056369528938e+01 -1.2889303200093012e+01 -2.1386782332600558e+02 0 0 0
484 14 2 0.0000000000000000e+00 -4.4345998569615737e+01 -1.7861329270595395e+01 -2.2239800995197658e+02 0 0 0
5550 159 4 0.0000000000000000e+00 -8.3207265913104933e+01 -1.1699733550206649e+02 -2.0452542988250050e+02 0 0 0
5549 159 4 0.0000000000000000e+00 -7.9365024978731896e+01 -1.0861911320019114e+02 -2.0996869735238286e+02 0 0 0
1627 47 2 0.0000000000000000e+00 -6.5559983002975500e+01 -1.0886533682935080e+02 -2.0409229100362739e+02 0 0 0
5548 159 3 0.0000000000000000e+00 -7.4783554379152449e+01 -1.0039749160689752e+02 -2.0745797043099981e+02 0 0 0
1626 47 2 0.0000000000000000e+00 -6.4276764238992186e+01 -9.9278386342365394e+01 -2.0812661005425144e+02 0 0 0
5547 159 4 0.0000000000000000e+00 -7.1613328836677439e+01 -9.1126082443712647e+01 -2.0828430326475265e+02 0 0 0
1625 47 2 0.0000000000000000e+00 -6.0504578275099874e+01 -8.9920326540488773e+01 -2.0986167101073724e+02 0 0 0
2659 76 2 0.0000000000000000e+00 -3.9345567488834511e+01 -9.2554226149487945e+01 -2.1216005584178694e+02 0 0 0
2660 76 2 0.0000000000000000e+00 -4.4273096197791183e+01 -9.1033254486930602e+01 -2.0383206395183140e+02 0 0 0
6249 179 4 0.0000000000000000e+00 -8.7844623270616282e+01 -7.8636231948717082e+01 -2.0277186251027177e+02 0 0 0
5109 146 4 0.0000000000000000e+00 -6.3681899697810550e+01 -7.6668935230135347e+01 -2.0988840177452047e+02 0 0 0
5110 146 4 0.0000000000000000e+00 -6.8531390427330422e+01 -8.0338658974565874e+01 -2.0215883271334650e+02 0 0 0
2835 81 2 0.0000000000000000e+00 -4.8320604880687490e+01 -7.6784520256186724e+01 -2.0220758811700063e+02 0 0 0
2834 81 2 0.0000000000000000e+00 -5.8265313306631384e+01 -7.4502936386519849e+01 -2.0050191343866018e+02 0 0 0
5108 146 4 0.0000000000000000e+00 -6.1695444765598936e+01 -6.6945280328725744e+01 -2.1249139691010859e+02 0 0 0
1376 40 1 0.0000000000000000e+00 -4.7223919888281500e+01 -6.7123989552364094e+01 -2.0838259895712920e+02 0 0 0
1375 40 2 0.0000000000000000e+00 -3.7828852467562008e+01 -7.0770008363350257e+01 -2.0685427728383695e+02 0 0 0
2093 60 2 0.0000000000000000e+00 -8.1319986652649106e+01 -5.0846288264080776e+01 -2.0558079683159184e+02 0 0 0
5107 146 3 0.0000000000000000e+00 -6.3348530094093029e+01 -5.8933053809677396e+01 -2.0667568907680925e+02 0 0 0
5106 146 4 0.0000000000000000e+00 -6.3662152340996172e+01 -4.9270904320113004e+01 -2.0961038033544966e+02 0 0 0
2077 60 2 0.0000000000000000e+00 -4.9149213727911288e+01 -5.0771680118963658e+01 -2.0241367229882113e+02 0 0 0
6303 181 4 0.0000000000000000e+00 -3.6861775548825314e+01 -4.6716968172936362e+01 -2.0367749118378865e+02 0 0 0
2078 60 2 0.0000000000000000e+00 -4.1491927307073901e+01 -5.7804285057884378e+01 -2.0295524702496797e+02 0 0 0
6264 179 4 0.0000000000000000e+00 -1.0635608973325016e+02 -3.3599052558838281e+01 -2.0636153161019902e+02 0 0 0
2092 60 2 0.0000000000000000e+00 -7.3358940113447346e+01 -4.3949636264983297e+01 -2.0582707520938754e+02 0 0 0
2091 60 2 0.0000000000000000e+00 -6.7105842513869717e+01 -3.7611677932661664e+01 -2.0054818774055920e+02 0 0 0
5105 146 4 0.0000000000000000e+00 -5.8526841742785898e+01 -4.1698751617116592e+01 -2.1345914445056627e+02 0 0 0
6304 181 3 0.0000000000000000e+00 -4.0696169112553399e+01 -4.3121033521740067e+01 -2.1222553537531348e+02 0 0 0
6261 179 4 0.0000000000000000e+00 -1.2962974457121427e+02 -2.6695896434161121e+01 -2.0299275129091725e+02 0 0 0
6262 179 3 0.0000000000000000e+00 -1.2190180561709631e+02 -2.2226862527760161e+01 -2.0846374378074873e+02 0 0 0
6263 179 4 0.0000000000000000e+00 -1.1311679042709079e+02 -2.6404067496089361e+01 -2.0511279199894645e+02 0 0 0
6540 187 4 0.0000000000000000e+00 -8.7000050226680145e+01 -2.8614793946260718e+01 -2.0056005482707923e+02 0 0 0
6543 187 4 0.0000000000000000e+00 -6.5947313578349906e+01 -2.0121360251812789e+01 -2.0664251904012298e+02 0 0 0
5102 146 4 0.0000000000000000e+00 -4.8646222755978791e+01 -2.3212473569392191e+01 -2.0671816220273340e+02 0 0 0
5101 146 4 0.0000000000000000e+00 -3.9326911257421756e+01 -1.9917708045534532e+01 -2.0581692924928603e+02 0 0 0
2819 81 2 0.0000000000000000e+00 -1.1060817381288014e+02 -1.6699642504217881e+01 -2.0385296165829385e+02 0 0 0
6544 187 4 0.0000000000000000e+00 -5.8343809155052639e+01 -1.3622865831370268e+01 -2.0533420114457675e+02 0 0 0
6545 187 4 0.0000000000000000e+00 -4.9774302871388208e+01 -9.2479557578443039e+00 -2.0432066924736486e+02 0 0 0
482 14 2 0.0000000000000000e+00 -4.0058737203098396e+01 -7.6747681009060402e+00 -2.0870362858024944e+02 0 0 0
5551 159 4 0.0000000000000000e+00 -8.9487521636149793e+01 -1.1137207935234906e+02 -1.9944519728731402e+02 0 0 0
5552 159 4 0.0000000000000000e+00 -8.9186334999160124e+01 -1.0158872981602758e+02 -1.9672078432265175e+02 0 0 0
1629 47 2 0.0000000000000000e+00 -7.7370479635913654e+01 -1.0729146902977902e+02 -1.8848890607659561e+02 0 0 0
1628 47 1 0.0000000000000000e+00 -7.2171868177652073e+01 -1.0533949291094201e+02 -1.9704933916031865e+02 0 0 0
5553 159 4 0.0000000000000000e+00 -9.5217496987132833e+01 -9.4918800339147722e+01 -1.9195985540681079e+02 0 0 0
5545 159 4 0.0000000000000000e+00 -7.2187601566963721e+01 -8.7648851860473911e+01 -1.8943473178207822e+02 0 0 0
5546 159 4 0.0000000000000000e+00 -7.3207323846160179e+01 -8.7585159493220345e+01 -1.9867617943359301e+02 0 0 0
6247 179 4 0.0000000000000000e+00 -1.0349954077474078e+02 -7.5956963288828646e+01 -1.9337284296510222e+02 0 0 0
6248 179 3 0.0000000000000000e+00 -9.3867546677100393e+01 -7.7958000134318297e+01 -1.9558503055542934e+02 0 0 0
5554 159 4 0.0000000000000000e+00 -9.6491931281222321e+01 -8.5523164231801601e+01 -1.8765622962585749e+02 0 0 0
2938 84 2 0.0000000000000000e+00 -1.5057288508307815e+02 -6.0513348071967194e+01 -1.8666652513478550e+02 0 0 0
6245 179 4 0.0000000000000000e+00 -1.1901980611456283e+02 -6.5607178943853413e+01 -1.9006483275511218e+02 0 0 0
6244 179 4 0.0000000000000000e+00 -1.2688919416536910e+02 -6.0844410736202732e+01 -1.9511123571670257e+02 0 0 0
6246 179 4 0.0000000000000000e+00 -1.1285410598212063e+02 -7.2873388638418632e+01 -1.9057389006628071e+02 0 0 0
6250 179 4 0.0000000000000000e+00 -8.2672096111644819e+01 -7.1298706223270671e+01 -1.9884410387866404e+02 0 0 0
6251 179 4 0.0000000000000000e+00 -8.0683966727635791e+01 -6.1657061783298936e+01 -1.9485319015739634e+02 0 0 0
2833 81 2 0.0000000000000000e+00 -6.6696956216183409e+01 -7.0121238419132837e+01 -1.9942484751659239e+02 0 0 0
2832 81 1 0.0000000000000000e+00 -6.9853343041094789e+01 -6.0819197486185779e+01 -1.9839876989420767e+02 0 0 0
1379 40 2 0.0000000000000000e+00 -6.3595465347863779e+01 -6.8386365586171394e+01 -1.8732213140696675e+02 0 0 0
1378 40 2 0.0000000000000000e+00 -5.4207274181419436e+01 -6.5429306691620923e+01 -1.9083609196043088e+02 0 0 0
1377 40 2 0.0000000000000000e+00 -4.7966941504676754e+01 -6.5772540250123370e+01 -1.9882831266152738e+02 0 0 0
2079 60 2 0.0000000000000000e+00 -3.3607321925592345e+01 -6.0895842468767420e+01 -1.9887358326035476e+02 0 0 0
6242 179 4 0.0000000000000000e+00 -1.4191642139950213e+02 -4.7368304446679993e+01 -1.9289864977808080e+02 0 0 0
6243 179 4 0.0000000000000000e+00 -1.3542381222942166e+02 -5.4859812840822400e+01 -1.9404133889844053e+02 0 0 0
2095 60 2 0.0000000000000000e+00 -9.1552664230678474e+01 -5.6357775242819635e+01 -1.8969182970955342e+02 0 0 0
2094 60 2 0.0000000000000000e+00 -8.7697562931520793e+01 -5.5135727866142631e+01 -1.9893460342207399e+02 0 0 0
6252 179 4 0.0000000000000000e+00 -7.6958160229743655e+01 -5.5145011717663785e+01 -1.8837399550450692e+02 0 0 0
2831 81 2 0.0000000000000000e+00 -7.1832269518910536e+01 -5.1355745896139915e+01 -1.9884088868728867e+02 0 0 0
2830 81 2 0.0000000000000000e+00 -6.7670055380445206e+01 -4.8078438749737423e+01 -1.9015642837601411e+02 0 0 0
6236 179 4 0.0000000000000000e+00 -1.9154061512661698e+02 -3.2536152621469611e+01 -1.8713496047306725e+02 0 0 0
6537 187 4 0.0000000000000000e+00 -1.1020335937280325e+02 -3.9933736481504774e+01 -1.8880787372005696e+02 0 0 0
6538 187 4 0.0000000000000000e+00 -1.0356994762928514e+02 -3.7726050200196973e+01 -1.9583991780183140e+02 0 0 0
6539 187 4 0.0000000000000000e+00 -9.4958626741027572e+01 -3.3464490656802582e+01 -1.9767020202055824e+02 0 0 0
2090 60 1 0.0000000000000000e+00 -6.0544649666254998e+01 -3.3862347883988413e+01 -1.9395793029914125e+02 0 0 0
2089 60 2 0.0000000000000000e+00 -5.4560839985079866e+01 -3.9931480952554026e+01 -1.8867501922887524e+02 0 0 0
2076 60 1 0.0000000000000000e+00 -4.4793726232606005e+01 -4.3220287984644507e+01 -1.9867249340297374e+02 0 0 0
2075 60 2 0.0000000000000000e+00 -3.8347869613861540e+01 -4.0881969202291778e+01 -1.9151912452844553e+02 0 0 0
6260 179 4 0.0000000000000000e+00 -1.2332083959587395e+02 -2.7549385014802976e+01 -1.9490733420488601e+02 0 0 0
6541 187 4 0.0000000000000000e+00 -7.7594285136474483e+01 -2.7038401820393648e+01 -1.9840184865317045e+02 0 0 0
6542 187 3 0.0000000000000000e+00 -6.7299062456867105e+01 -2.6347019020965323e+01 -1.9856336105257409e+02 0 0 0
2820 81 2 0.0000000000000000e+00 -1.0346945220311525e+02 -1.3711486038662684e+01 -1.9807902741854826e+02 0 0 0
2821 81 2 0.0000000000000000e+00 -9.3158538951029939e+01 -1.2650489048645776e+01 -1.9637657396570961e+02 0 0 0
2822 81 2 0.0000000000000000e+00 -9.3605254221466609e+01 -1.6141355827195820e+01 -1.8742713999136808e+02 0 0 0
3186 92 2 0.0000000000000000e+00 -3.8404147772423833e+01 -2.1861924911786041e+00 -1.9251341754605014e+02 0 0 0
1630 47 2 0.0000000000000000e+00 -8.4601761367459829e+01 -1.1071793771452768e+02 -1.8208301774655800e+02 0 0 0
1631 47 2 0.0000000000000000e+00 -7.7124247020296707e+01 -1.0827811570496100e+02 -1.7518031623636386e+02 0 0 0
4728 136 4 0.0000000000000000e+00 -8.6889244141208025e+01 -8.9169994818217901e+01 -1.7769782435294263e+02 0 0 0
5544 159 4 0.0000000000000000e+00 -7.4263064883364592e+01 -9.3377927886768845e+01 -1.8203881676737149e+02 0 0 0
6330 181 4 0.0000000000000000e+00 -3.7558954928302690e+01 -8.7457891007940560e+01 -1.7930624110783464e+02 0 0 0
5564 159 4 0.0000000000000000e+00 -1.5569367461334053e+02 -7.4299095712966789e+01 -1.7528985757648624e+02 0 0 0
5563 159 4 0.0000000000000000e+00 -1.4972441795237026e+02 -7.3944228266198863e+01 -1.8384802346599611e+02 0 0 0
5562 159 3 0.0000000000000000e+00 -1.4020135091064503e+02 -7.3984511058221798e+01 -1.7949187032864717e+02 0 0 0
5556 159 4 0.0000000000000000e+00 -1.0610141538614600e+02 -7.9142650846142828e+01 -1.7871113778254423e+02 0 0 0
5555 159 3 0.0000000000000000e+00 -9.6530395176862356e+01 -7.8506235714251360e+01 -1.8083742011480291e+02 0 0 0
4727 136 4 0.0000000000000000e+00 -8.1367282720850255e+01 -8.3536242672018687e+01 -1.8383668241715475e+02 0 0 0
3032 87 2 0.0000000000000000e+00 -6.3460020491529896e+01 -8.6661128728189553e+01 -1.8050262686429167e+02 0 0 0
4726 136 4 0.0000000000000000e+00 -7.2109427147421741e+01 -8.0958236631527569e+01 -1.8219666339501271e+02 0 0 0
3033 87 2 0.0000000000000000e+00 -6.3125008238810011e+01 -7.6750033775677338e+01 -1.8151335221213884e+02 0 0 0
6331 181 4 0.0000000000000000e+00 -4.4986275500996115e+01 -8.5349899269800275e+01 -1.7371231773427721e+02 0 0 0
2939 84 2 0.0000000000000000e+00 -1.5951091914041641e+02 -6.0367424571521305e+01 -1.8140679961244766e+02 0 0 0
2940 84 2 0.0000000000000000e+00 -1.6861067446154701e+02 -6.3292682741512031e+01 -1.7884227015217746e+02 0 0 0
2930 84 1 0.0000000000000000e+00 -1.3088742591457407e+02 -6.7948932473811595e+01 -1.7715462564537580e+02 0 0 0
1382 40 2 0.0000000000000000e+00 -8.9558319897550049e+01 -7.3098255640988810e+01 -1.7498624690631414e+02 0 0 0
1380 40 2 0.0000000000000000e+00 -7.3516347975729602e+01 -7.1455405280027676e+01 -1.8603553211051170e+02 0 0 0
1381 40 2 0.0000000000000000e+00 -8.1814223759810389e+01 -6.9857776896926424e+01 -1.8016187802964643e+02 0 0 0
3034 87 2 0.0000000000000000e+00 -6.2157598436809366e+01 -6.9973729875836199e+01 -1.7382218849996735e+02 0 0 0
4742 136 4 0.0000000000000000e+00 -4.6188741978981163e+01 -6.3018865202808776e+01 -1.7610351254114391e+02 0 0 0
4741 136 4 0.0000000000000000e+00 -3.7682066158755397e+01 -6.5872770865620097e+01 -1.8161949618255755e+02 0 0 0
4740 136 4 0.0000000000000000e+00 -3.2179359597905034e+01 -7.3210354537056247e+01 -1.7744308393101656e+02 0 0 0
6234 179 3 0.0000000000000000e+00 -1.9258356803431209e+02 -5.0700926990447790e+01 -1.8271534052481584e+02 0 0 0
6233 179 4 0.0000000000000000e+00 -1.8789613363465037e+02 -4.9625078606003477e+01 -1.7409176780302403e+02 0 0 0
6241 179 3 0.0000000000000000e+00 -1.4695751819540544e+02 -4.7080580171384334e+01 -1.8430267975022713e+02 0 0 0
2937 84 1 0.0000000000000000e+00 -1.4114584793491969e+02 -5.6474349190228864e+01 -1.8523590167673422e+02 0 0 0
2936 84 2 0.0000000000000000e+00 -1.3201095151871309e+02 -5.6822104509402209e+01 -1.8071267604211499e+02 0 0 0
2935 84 2 0.0000000000000000e+00 -1.2729650894351421e+02 -5.2269655009191268e+01 -1.7318988418516690e+02 0 0 0
6535 187 3 0.0000000000000000e+00 -1.1584460082157484e+02 -4.7253394773357208e+01 -1.7418858352049872e+02 0 0 0
6536 187 4 0.0000000000000000e+00 -1.1585190398934726e+02 -4.6793350158121520e+01 -1.8454442447475736e+02 0 0 0
2097 60 1 0.0000000000000000e+00 -1.0639830577162581e+02 -5.1497064633472007e+01 -1.7936312087614729e+02 0 0 0
2098 60 2 0.0000000000000000e+00 -1.1149716717327908e+02 -5.8192247972847909e+01 -1.7367076722805302e+02 0 0 0
2096 60 2 0.0000000000000000e+00 -9.8098317439177492e+01 -5.6525319326368624e+01 -1.8241829458489735e+02 0 0 0
6253 179 4 0.0000000000000000e+00 -7.6969560341724929e+01 -4.7218847568196729e+01 -1.8317889368860139e+02 0 0 0
2082 60 2 0.0000000000000000e+00 -3.7101472004154196e+01 -5.8597391766326488e+01 -1.7325090174334775e+02 0 0 0
6235 179 4 0.0000000000000000e+00 -1.9554529394571395e+02 -4.1287807581968671e+01 -1.8468386121693294e+02 0 0 0
6237 179 4 0.0000000000000000e+00 -1.8215265891736007e+02 -3.5197854957284491e+01 -1.8442103126992572e+02 0 0 0
6238 179 4 0.0000000000000000e+00 -1.7289305214704328e+02 -3.9349272564253567e+01 -1.8441152226821720e+02 0 0 0
6239 179 4 0.0000000000000000e+00 -1.6311362185720347e+02 -3.9185596483083174e+01 -1.8330233873273431e+02 0 0 0
6240 179 4 0.0000000000000000e+00 -1.5454358268836114e+02 -4.2070350858565625e+01 -1.7981000679349503e+02 0 0 0
6257 179 4 0.0000000000000000e+00 -1.1070511279938597e+02 -3.1968355112358712e+01 -1.7707438969976786e+02 0 0 0
6256 179 4 0.0000000000000000e+00 -1.0340209020557650e+02 -3.7923660468673056e+01 -1.7491549310749627e+02 0 0 0
6255 179 3 0.0000000000000000e+00 -9.3539621130569842e+01 -4.0312636614661571e+01 -1.7488489527684752e+02 0 0 0
6254 179 4 0.0000000000000000e+00 -8.5812878126778259e+01 -4.4355006761461084e+01 -1.7952725524276050e+02 0 0 0
2829 81 2 0.0000000000000000e+00 -6.5064281111911427e+01 -4.3525580599282726e+01 -1.8160139280872357e+02 0 0 0
2828 81 2 0.0000000000000000e+00 -6.9589628000917486e+01 -3.9982591906331322e+01 -1.7336571712657187e+02 0 0 0
2088 60 2 0.0000000000000000e+00 -5.3943174397959780e+01 -3.8042387382413253e+01 -1.7909335066809356e+02 0 0 0
2074 60 2 0.0000000000000000e+00 -3.7412021807965111e+01 -3.3795642200087549e+01 -1.8462942400768330e+02 0 0 0
2637 76 2 0.0000000000000000e+00 -3.5270292802792348e+01 -4.4079521212639577e+01 -1.7594545977273691e+02 0 0 0
6259 179 4 0.0000000000000000e+00 -1.2246273612027090e+02 -2.9423925835333666e+01 -1.8547241711551908e+02 0 0 0
6258 179 4 0.0000000000000000e+00 -1.2020292682955444e+02 -3.1224932591587461e+01 -1.7592785327127231e+02 0 0 0
2824 81 2 0.0000000000000000e+00 -9.3098064893809507e+01 -2.2833456792735973e+01 -1.7408294464266316e+02 0 0 0
2073 60 2 0.0000000000000000e+00 -3.4584522522185054e+01 -2.7713627483516834e+01 -1.7791003758031189e+02 0 0 0
2823 81 2 0.0000000000000000e+00 -8.8460495394704253e+01 -1.6421463104582063e+01 -1.7994173154705760e+02 0 0 0
4759 136 4 0.0000000000000000e+00 -6.5055529004812470e+01 -8.2083121304842823e+00 -1.7582884979296682e+02 0 0 0
4758 136 4 0.0000000000000000e+00 -6.2720216949313638e+01 -1.7521592370568946e+01 -1.7464731741371969e+02 0 0 0
4760 136 4 0.0000000000000000e+00 -7.0854336054629897e+01 -1.9791878965024465e+00 -1.8186598247208175e+02 0 0 0
1632 47 2 0.0000000000000000e+00 -7.1423583304383797e+01 -1.0504037155825453e+02 -1.6709609531621109e+02 0 0 0
5558 159 4 0.0000000000000000e+00 -1.1750401354246785e+02 -9.1997139460981586e+01 -1.7009870423446225e+02 0 0 0
4730 136 4 0.0000000000000000e+00 -9.6370297827994037e+01 -9.1715979019154148e+01 -1.6445373278608292e+02 0 0 0
4731 136 4 0.0000000000000000e+00 -8.9348294468254139e+01 -9.6347391884053508e+01 -1.5982978479848413e+02 0 0 0
5543 159 4 0.0000000000000000e+00 -7.6380914141071415e+01 -9.3157305875033146e+01 -1.7218579727631831e+02 0 0 0
5542 159 4 0.0000000000000000e+00 -7.8366646088074646e+01 -8.9835259439755887e+01 -1.6332016007369998e+02 0 0 0
3031 87 2 0.0000000000000000e+00 -6.2941235784943494e+01 -9.2385571863206891e+01 -1.7227020916751363e+02 0 0 0
1633 47 2 0.0000000000000000e+00 -7.0098898446264229e+01 -9.6634235475992412e+01 -1.6199122179700927e+02 0 0 0
1634 47 2 0.0000000000000000e+00 -6.6650623880909819e+01 -8.7304993297129542e+01 -1.6106840889174853e+02 0 0 0
3030 87 2 0.0000000000000000e+00 -5.5496153485511655e+01 -9.8365200558095268e+01 -1.6924065784169269e+02 0 0 0
3029 87 2 0.0000000000000000e+00 -4.8174121070109734e+01 -9.8804281449017211e+01 -1.6257687583881520e+02 0 0 0
5565 159 4 0.0000000000000000e+00 -1.5705912860929749e+02 -8.1956068074869052e+01 -1.6906877230750172e+02 0 0 0
5561 159 4 0.0000000000000000e+00 -1.3882842482453452e+02 -7.8958264360720591e+01 -1.7055587038336756e+02 0 0 0
5560 159 4 0.0000000000000000e+00 -1.3262473233381002e+02 -8.3994695771745910e+01 -1.6427199441147198e+02 0 0 0
5559 159 4 0.0000000000000000e+00 -1.2271676246413371e+02 -8.6179945883144754e+01 -1.6421974100214939e+02 0 0 0
5557 159 4 0.0000000000000000e+00 -1.1040122943636128e+02 -8.5119628567945469e+01 -1.7227125862206537e+02 0 0 0
2100 60 2 0.0000000000000000e+00 -1.0766575273837734e+02 -7.5300087797040362e+01 -1.6916665051648994e+02 0 0 0
4729 136 3 0.0000000000000000e+00 -9.2205424021251417e+01 -8.5158151740774187e+01 -1.7110620585688469e+02 0 0 0
1383 40 1 0.0000000000000000e+00 -9.7792088960826931e+01 -7.7248297957649868e+01 -1.7003973191278612e+02 0 0 0
6335 181 4 0.0000000000000000e+00 -7.9213748517849453e+01 -7.4384878600564392e+01 -1.7215967765598353e+02 0 0 0
6334 181 4 0.0000000000000000e+00 -7.0645682789567900e+01 -7.8432618785913704e+01 -1.6826746641705546e+02 0 0 0
6333 181 4 0.0000000000000000e+00 -6.1348222000411084e+01 -7.9932216823367355e+01 -1.6760602038529362e+02 0 0 0
6332 181 3 0.0000000000000000e+00 -5.1653907491439881e+01 -7.8264969927172075e+01 -1.7088472249061110e+02 0 0 0
4739 136 4 0.0000000000000000e+00 -3.2298526352630113e+01 -7.7309939108928063e+01 -1.6852034150246564e+02 0 0 0
2931 84 2 0.0000000000000000e+00 -1.3640168005755243e+02 -6.2352238045673055e+01 -1.7010187575921410e+02 0 0 0
2929 84 2 0.0000000000000000e+00 -1.2617487921656195e+02 -7.0805687932030253e+01 -1.6917332920106543e+02 0 0 0
2099 60 2 0.0000000000000000e+00 -1.0969129540629758e+02 -6.5456635267594805e+01 -1.6810383555852525e+02 0 0 0
1384 40 2 0.0000000000000000e+00 -1.0133432779833289e+02 -7.1488536228070004e+01 -1.6232703384592978e+02 0 0 0
3035 87 1 0.0000000000000000e+00 -5.6098575670003960e+01 -6.9024574968569581e+01 -1.6588526473248660e+02 0 0 0
3036 87 2 0.0000000000000000e+00 -4.7705249156092258e+01 -6.8868653444669064e+01 -1.6073928746873619e+02 0 0 0
2083 60 1 0.0000000000000000e+00 -4.4582080157761304e+01 -6.0494506340494205e+01 -1.6639408572141588e+02 0 0 0
6232 179 4 0.0000000000000000e+00 -1.8485641356516311e+02 -5.0225189563597489e+01 -1.6466576455576092e+02 0 0 0
6231 179 4 0.0000000000000000e+00 -1.7550445825913650e+02 -4.9004871220724169e+01 -1.6356421772298447e+02 0 0 0
2932 84 2 0.0000000000000000e+00 -1.3795525306188958e+02 -5.4107632291249047e+01 -1.6453006908167052e+02 0 0 0
6534 187 4 0.0000000000000000e+00 -1.1152074746230237e+02 -4.7201089967515408e+01 -1.6521821723857130e+02 0 0 0
4743 136 3 0.0000000000000000e+00 -5.3320925284376827e+01 -5.7166568326999304e+01 -1.7281850652097103e+02 0 0 0
4744 136 4 0.0000000000000000e+00 -4.7522646664679058e+01 -4.9192178622169187e+01 -1.7097618553603695e+02 0 0 0
2934 84 2 0.0000000000000000e+00 -1.3067206726429120e+02 -4.4640735700528836e+01 -1.6829539950755409e+02 0 0 0
2933 84 2 0.0000000000000000e+00 -1.4060174640687200e+02 -4.5681491436586931e+01 -1.6839089862511869e+02 0 0 0
2826 81 2 0.0000000000000000e+00 -8.3980598627945682e+01 -3.5740896268361375e+01 -1.6747498734688855e+02 0 0 0
2827 81 2 0.0000000000000000e+00 -7.6333294887611373e+01 -4.1896289464497521e+01 -1.6565379994534183e+02 0 0 0
2087 60 2 0.0000000000000000e+00 -5.2983870595707124e+01 -3.8450229495528859e+01 -1.6880088145787451e+02 0 0 0
2086 60 2 0.0000000000000000e+00 -5.5097325483254608e+01 -4.4173230363120801e+01 -1.6130769089158207e+02 0 0 0
2636 76 1 0.0000000000000000e+00 -3.4670703070072079e+01 -4.3674951883731573e+01 -1.6608482642031100e+02 0 0 0
4745 136 4 0.0000000000000000e+00 -4.4033890939678365e+01 -3.9902387511664458e+01 -1.7187686786968194e+02 0 0 0
2825 81 1 0.0000000000000000e+00 -9.3113271302408904e+01 -3.1606261158869071e+01 -1.6838330701545337e+02 0 0 0
4757 136 3 0.0000000000000000e+00 -6.0471057234097891e+01 -2.4497251535407845e+01 -1.6784013374853336e+02 0 0 0
4747 136 4 0.0000000000000000e+00 -5.1637794695986450e+01 -2.1715826803544601e+01 -1.6689044135411041e+02 0 0 0
4746 136 4 0.0000000000000000e+00 -4.6724496389807335e+01 -3.0466082639307349e+01 -1.6863525563149722e+02 0 0 0
2072 60 2 0.0000000000000000e+00 -3.5076147664071577e+01 -2.0408812578773755e+01 -1.7130740839940563e+02 0 0 0
575 17 2 0.0000000000000000e+00 -1.3026873814419142e+02 -8.5282266668696796e+00 -1.6101511570211832e+02 0 0 0
574 17 2 0.0000000000000000e+00 -1.2148331824867724e+02 -6.2346781491610512e+00 -1.6388791061834220e+02 0 0 0
4748 136 4 0.0000000000000000e+00 -5.6312303276718993e+01 -1.2742843775930115e+01 -1.6774193509710494e+02 0 0 0
2071 60 2 0.0000000000000000e+00 -3.9325869792421692e+01 -1.2291602145442516e+01 -1.6792158190978134e+02 0 0 0
6343 182 4 0.0000000000000000e+00 -1.4104570112135423e+02 4.6100358383130926e+00 -1.6956138387796622e+02 0 0 0