LAMMPS data file via write_data, version 5 Jun 2019, timestep = 400000000

7000 atoms
4 atom types
7265 bonds
3 bond types
6600 angles
2 angle types

-5.0000000000000000e+02 5.0000000000000000e+02 xlo xhi
-5.0000000000000000e+02 5.0000000000000000e+02 ylo yhi
-5.0000000000000000e+02 5.0000000000000000e+02 zlo zhi

Masses

1 1000
2 1000
3 1000
4 1000

Pair Coeffs # lj/cut

1 0.178 10
2 0.178 10
3 0.178 10
4 0.178 10

Angle Coeffs # cosine

1 2
2 2

Atoms # full

2826 81 2 0.0000000000000000e+00 -7.0989750843362614e+01 -9.8456919737569720e+01 -2.3747434675294659e+02 0 0 0
6263 179 4 0.0000000000000000e+00 -7.9747043784171112e+01 -9.0868190899738735e+01 -2.4060491632225975e+02 0 0 0
2825 81 1 0.0000000000000000e+00 -6.7985432968228082e+01 -8.8935016791176906e+01 -2.3984674575906078e+02 0 0 0
2824 81 2 0.0000000000000000e+00 -6.1595282106144296e+01 -8.0738912853184317e+01 -2.4011684824911072e+02 0 0 0
2819 81 2 0.0000000000000000e+00 -5.6183803046251413e+01 -4.6027858526162618e+01 -2.4047291725812858e+02 0 0 0
6302 181 4 0.0000000000000000e+00 -5.8021347572010932e+01 -2.9773992519056463e+01 -2.4146383882936354e+02 0 0 0
6301 181 4 0.0000000000000000e+00 -5.3525799962061917e+01 -2.4547072465162294e+01 -2.4823982721952058e+02 0 0 0
3363 97 2 0.0000000000000000e+00 -7.0999187697260098e+01 5.0277417314103602e+01 -2.4268019121411973e+02 0 0 0
3362 97 2 0.0000000000000000e+00 -7.5791279658489685e+01 5.7702869555399779e+01 -2.4844553053435718e+02 0 0 0
6251 179 4 0.0000000000000000e+00 -4.1347579382253720e+01 -1.3556477609420114e+02 -2.3081617119491176e+02 0 0 0
6256 179 4 0.0000000000000000e+00 -5.8418680389154581e+01 -1.2622842576811055e+02 -2.2390366114013548e+02 0 0 0
6250 179 4 0.0000000000000000e+00 -3.5042984193253389e+01 -1.2739149099944582e+02 -2.3133950255395752e+02 0 0 0
2829 81 2 0.0000000000000000e+00 -4.3208917342335468e+01 -1.0586042208263980e+02 -2.3679072367777243e+02 0 0 0
2830 81 2 0.0000000000000000e+00 -4.8980345275822785e+01 -1.1207009329253860e+02 -2.3094279082243821e+02 0 0 0
1517 44 2 0.0000000000000000e+00 -4.4291072049420642e+01 -1.0423265475997314e+02 -2.2394919596790959e+02 0 0 0
6248 179 3 0.0000000000000000e+00 -2.9692566556537990e+01 -1.1214046206025151e+02 -2.2943672452318091e+02 0 0 0
6265 179 4 0.0000000000000000e+00 -7.9484251814937750e+01 -9.1827126478739984e+01 -2.2471812509425419e+02 0 0 0
2827 81 2 0.0000000000000000e+00 -6.1874635962627544e+01 -1.0262023185414115e+02 -2.3427778435256812e+02 0 0 0
2828 81 2 0.0000000000000000e+00 -5.2264547409074702e+01 -1.0222883743026246e+02 -2.3569382752406977e+02 0 0 0
6246 179 4 0.0000000000000000e+00 -3.5557821945352586e+01 -9.3364996575449098e+01 -2.2462378056003573e+02 0 0 0
6247 179 4 0.0000000000000000e+00 -3.4145002366492463e+01 -1.0265299127089121e+02 -2.2772203242005418e+02 0 0 0
6264 179 4 0.0000000000000000e+00 -8.6286551757483863e+01 -8.9748424692996124e+01 -2.3217271110663873e+02 0 0 0
6262 179 3 0.0000000000000000e+00 -7.5397531652752804e+01 -8.7291827763858834e+01 -2.3185752447162230e+02 0 0 0
6261 179 4 0.0000000000000000e+00 -6.8359161300728417e+01 -8.7105054025248023e+01 -2.2462191387772666e+02 0 0 0
2823 81 2 0.0000000000000000e+00 -5.2858038273853744e+01 -7.8729246064813665e+01 -2.3641827554837124e+02 0 0 0
2822 81 2 0.0000000000000000e+00 -4.9257605477576909e+01 -7.0991421466299357e+01 -2.3130687481284127e+02 0 0 0
2820 81 2 0.0000000000000000e+00 -5.2063439007390748e+01 -5.1029208071924415e+01 -2.3281746418795041e+02 0 0 0
2821 81 2 0.0000000000000000e+00 -5.1013826385564364e+01 -6.1149556535072463e+01 -2.3085819775937898e+02 0 0 0
2818 81 1 0.0000000000000000e+00 -5.8197912552253221e+01 -3.9124914997742358e+01 -2.3435125626839161e+02 0 0 0
2817 81 2 0.0000000000000000e+00 -5.6932493125999819e+01 -4.0385306137523955e+01 -2.2510113279899161e+02 0 0 0
6303 181 4 0.0000000000000000e+00 -5.9547173908086819e+01 -2.9603298607729666e+01 -2.3210801813888568e+02 0 0 0
6304 181 3 0.0000000000000000e+00 -5.1848504044120745e+01 -3.2660322433899495e+01 -2.2692361814206916e+02 0 0 0
3364 97 1 0.0000000000000000e+00 -7.3990243769984630e+01 5.4179009137613818e+01 -2.3412756244777196e+02 0 0 0
3365 97 2 0.0000000000000000e+00 -7.0447174618302867e+01 5.5853619437313377e+01 -2.2457168404499291e+02 0 0 0
6255 179 3 0.0000000000000000e+00 -5.4466849726677680e+01 -1.3298657427225285e+02 -2.1749090486234806e+02 0 0 0
6253 179 4 0.0000000000000000e+00 -4.6726422362919209e+01 -1.4085387112353104e+02 -2.1284109617702833e+02 0 0 0
6252 179 4 0.0000000000000000e+00 -4.6726945580095517e+01 -1.3691483747654482e+02 -2.2202019770993186e+02 0 0 0
2832 81 1 0.0000000000000000e+00 -4.6694032098888819e+01 -1.2514654984063424e+02 -2.1702285338780783e+02 0 0 0
6257 179 4 0.0000000000000000e+00 -5.9272158413749864e+01 -1.1676595009583643e+02 -2.2328028923194674e+02 0 0 0
6258 179 4 0.0000000000000000e+00 -5.8411501677500638e+01 -1.0718319487420919e+02 -2.2050772793541472e+02 0 0 0
2831 81 2 0.0000000000000000e+00 -4.8082441923391904e+01 -1.1616369345065303e+02 -2.2202545913060109e+02 0 0 0
1516 44 1 0.0000000000000000e+00 -3.7351765563341409e+01 -1.1121414005383964e+02 -2.2163558534816895e+02 0 0 0
1515 44 2 0.0000000000000000e+00 -2.9494574881770504e+01 -1.0981911700813554e+02 -2.1519081501611379e+02 0 0 0
6259 179 4 0.0000000000000000e+00 -5.7218170507603602e+01 -9.8273448966997435e+01 -2.1583317907583231e+02 0 0 0
6260 179 4 0.0000000000000000e+00 -6.0907772162301583e+01 -9.0023390911747683e+01 -2.1889166604569630e+02 0 0 0
1518 44 2 0.0000000000000000e+00 -4.5622440559411181e+01 -9.7864801476857011e+01 -2.1622026960342436e+02 0 0 0
6245 179 4 0.0000000000000000e+00 -2.8716444105798111e+01 -8.7908312236532510e+01 -2.1962864554477767e+02 0 0 0
6244 179 4 0.0000000000000000e+00 -3.0262898096696841e+01 -7.8809816996826754e+01 -2.1614757447601787e+02 0 0 0
2816 81 2 0.0000000000000000e+00 -5.4895931360399238e+01 -4.2764498107021396e+01 -2.1593814366616897e+02 0 0 0
6305 181 4 0.0000000000000000e+00 -4.4055919080364262e+01 -3.5531609177971518e+01 -2.2111628080736435e+02 0 0 0
6306 181 4 0.0000000000000000e+00 -3.5215673788343167e+01 -3.7617725721018033e+01 -2.1683800307504035e+02 0 0 0
5563 159 4 0.0000000000000000e+00 -5.4485305391827673e+01 1.2120865956450395e+01 -2.1014657917971607e+02 0 0 0
3366 97 2 0.0000000000000000e+00 -6.7692579970977789e+01 5.5555313752841911e+01 -2.1507675926135460e+02 0 0 0
6254 179 4 0.0000000000000000e+00 -5.5228719764121422e+01 -1.3780266983449641e+02 -2.0852771855543159e+02 0 0 0
2833 81 2 0.0000000000000000e+00 -4.2937459010585776e+01 -1.2657972577801137e+02 -2.0828028641439295e+02 0 0 0
2834 81 2 0.0000000000000000e+00 -3.3331859120963323e+01 -1.2862003345481176e+02 -2.0642272828776655e+02 0 0 0
1519 44 2 0.0000000000000000e+00 -4.7608572886564410e+01 -9.3178960976076880e+01 -2.0793856909605654e+02 0 0 0
1520 44 2 0.0000000000000000e+00 -4.2975204244402960e+01 -9.1071777146102335e+01 -1.9887677665527798e+02 0 0 0
6313 181 4 0.0000000000000000e+00 -3.8584539575506554e+01 -7.8228026243899222e+01 -2.0317432332047977e+02 0 0 0
4199 120 4 0.0000000000000000e+00 -8.2038442229250961e+01 -7.2867378751545530e+01 -2.0036711084680411e+02 0 0 0
4200 120 4 0.0000000000000000e+00 -7.2174397594800638e+01 -7.1605591321891822e+01 -1.9917494321465196e+02 0 0 0
6314 181 4 0.0000000000000000e+00 -4.6229164735611000e+01 -7.5421288756083484e+01 -1.9760190252017063e+02 0 0 0
2813 81 2 0.0000000000000000e+00 -4.7892600192241368e+01 -6.3691855615175371e+01 -1.9770716712238374e+02 0 0 0
6312 181 4 0.0000000000000000e+00 -3.0898721384249274e+01 -7.3767325276524062e+01 -2.0633229521054568e+02 0 0 0
1381 40 2 0.0000000000000000e+00 -1.0255838427244326e+02 -5.7773680951275303e+01 -1.9661318268999736e+02 0 0 0
1380 40 2 0.0000000000000000e+00 -9.2843158385791895e+01 -5.8107951219469356e+01 -1.9968178515845850e+02 0 0 0
1379 40 2 0.0000000000000000e+00 -8.3139604011766167e+01 -5.8391907459478702e+01 -1.9686905610306937e+02 0 0 0
2815 81 2 0.0000000000000000e+00 -5.6096349868594210e+01 -5.0413560946990202e+01 -2.0943256135056038e+02 0 0 0
2814 81 2 0.0000000000000000e+00 -5.3487911911946185e+01 -5.8005879478887827e+01 -2.0384652002722794e+02 0 0 0
1386 40 2 0.0000000000000000e+00 -1.3535525002210218e+02 -3.0279133966310074e+01 -1.9742107925326974e+02 0 0 0
6531 187 4 0.0000000000000000e+00 -1.0263205749699171e+02 -2.5493408308848931e+01 -2.0001693865071951e+02 0 0 0
5560 159 4 0.0000000000000000e+00 -5.6523871229497765e+01 -1.5069412672252884e+01 -2.0196933708173083e+02 0 0 0
5562 159 3 0.0000000000000000e+00 -5.6143772405835968e+01 3.6403988193723982e+00 -2.0620490796817208e+02 0 0 0
5561 159 4 0.0000000000000000e+00 -5.7590713492993494e+01 -5.6781392968259254e+00 -2.0487454692576608e+02 0 0 0
2937 84 1 0.0000000000000000e+00 -6.4352347570252221e+01 6.9640342346420958e-01 -1.9864971819484848e+02 0 0 0
6188 177 4 0.0000000000000000e+00 -1.2116450789852077e+02 1.5831550913094315e+01 -2.0301255117672528e+02 0 0 0
6189 177 4 0.0000000000000000e+00 -1.1421957754141381e+02 1.2261966680678446e+01 -1.9677155473365036e+02 0 0 0
2933 84 2 0.0000000000000000e+00 -9.1658713461115909e+01 1.6632595228304130e+01 -1.9672545319321088e+02 0 0 0
2934 84 2 0.0000000000000000e+00 -8.4800998855397566e+01 1.8816159150918391e+01 -2.0358055855311056e+02 0 0 0
2936 84 2 0.0000000000000000e+00 -7.0663640728781488e+01 5.8930600580720025e+00 -2.0336331718586030e+02 0 0 0
2935 84 2 0.0000000000000000e+00 -7.7687651964388465e+01 1.2764828490092851e+01 -2.0487725361445197e+02 0 0 0
5564 159 4 0.0000000000000000e+00 -4.5584387055424457e+01 7.3093515722588105e+00 -2.0859089591561332e+02 0 0 0
5565 159 4 0.0000000000000000e+00 -4.1646888912941129e+01 1.5265129915998903e+01 -2.0367414029327290e+02 0 0 0
6187 177 4 0.0000000000000000e+00 -1.2828952528704431e+02 2.3133506035289191e+01 -2.0302846751950818e+02 0 0 0
4929 141 4 0.0000000000000000e+00 -5.0769283446306538e+01 2.2457020152456117e+01 -1.9769370976939064e+02 0 0 0
4928 141 4 0.0000000000000000e+00 -4.7705019374290607e+01 3.0426270065146220e+01 -2.0312106698105529e+02 0 0 0
6032 173 4 0.0000000000000000e+00 -2.8206228271659885e+01 2.5121426338913750e+01 -2.0069980373367841e+02 0 0 0
6186 177 4 0.0000000000000000e+00 -1.3081831909097343e+02 3.3090961625027099e+01 -2.0540357894234680e+02 0 0 0
6185 177 3 0.0000000000000000e+00 -1.3229054109337631e+02 4.2875480618698930e+01 -2.0626594561568541e+02 0 0 0
2916 84 1 0.0000000000000000e+00 -1.2231498952043980e+02 4.3122649113809665e+01 -2.0048995315605325e+02 0 0 0
6230 178 4 0.0000000000000000e+00 -7.7534022598892975e+01 4.4281294561929798e+01 -2.0383912777071339e+02 0 0 0
4927 141 4 0.0000000000000000e+00 -4.3304212252178495e+01 3.9246552865651552e+01 -2.0210547040817767e+02 0 0 0
6184 177 4 0.0000000000000000e+00 -1.3182756615335197e+02 5.2611231452962485e+01 -2.0507607194239904e+02 0 0 0
2915 84 2 0.0000000000000000e+00 -1.2291945044467501e+02 5.1903631776441216e+01 -1.9691201230794047e+02 0 0 0
6229 178 4 0.0000000000000000e+00 -8.1884161070847028e+01 5.3571113628215450e+01 -2.0280233262502196e+02 0 0 0
3368 97 2 0.0000000000000000e+00 -6.8689347320393566e+01 5.6883428433514773e+01 -1.9670795582177701e+02 0 0 0
3367 97 2 0.0000000000000000e+00 -6.4859425156425957e+01 5.8106872814866485e+01 -2.0561618754904086e+02 0 0 0
4926 141 4 0.0000000000000000e+00 -4.3984756832448440e+01 4.8942023414608592e+01 -2.0106871052692782e+02 0 0 0
6323 181 4 0.0000000000000000e+00 -5.7218846832677251e+01 -1.1899552253036531e+02 -1.8377673126987997e+02 0 0 0
2802 81 2 0.0000000000000000e+00 -5.1178282567940123e+01 -1.3033773166767028e+02 -1.8202265140843835e+02 0 0 0
1376 40 1 0.0000000000000000e+00 -7.8115050945898659e+01 -8.1614860354074906e+01 -1.8320782635212177e+02 0 0 0
1521 44 2 0.0000000000000000e+00 -4.0356626223470109e+01 -8.7613436673511558e+01 -1.8942331641763931e+02 0 0 0
4197 120 3 0.0000000000000000e+00 -8.7804408830634614e+01 -7.5205895417374450e+01 -1.8408277683717370e+02 0 0 0
4198 120 4 0.0000000000000000e+00 -8.9906536906400234e+01 -7.2601030602893985e+01 -1.9363427586763606e+02 0 0 0
1377 40 2 0.0000000000000000e+00 -7.7749071618433021e+01 -7.4412485480875375e+01 -1.9029274864751881e+02 0 0 0
1378 40 2 0.0000000000000000e+00 -7.9139803275731225e+01 -6.4501185602739497e+01 -1.8998216643708909e+02 0 0 0
6315 181 4 0.0000000000000000e+00 -5.0701581009614983e+01 -7.1086284934002904e+01 -1.9015762107092982e+02 0 0 0
2812 81 2 0.0000000000000000e+00 -3.8798138733919693e+01 -6.6559112621168723e+01 -1.9461894125684162e+02 0 0 0
2811 81 1 0.0000000000000000e+00 -3.0221537281282639e+01 -7.1105563987512028e+01 -1.9215790936103096e+02 0 0 0
1383 40 1 0.0000000000000000e+00 -1.1879873833402698e+02 -5.1337702333579621e+01 -1.8994254698757700e+02 0 0 0
1382 40 2 0.0000000000000000e+00 -1.1232239361159556e+02 -5.7032599027784968e+01 -1.9426434050773747e+02 0 0 0
1385 40 2 0.0000000000000000e+00 -1.3399480319144132e+02 -3.8899815030116372e+01 -1.9334188545277181e+02 0 0 0
1384 40 2 0.0000000000000000e+00 -1.2607762608880458e+02 -4.4791630739437224e+01 -1.9101585987303091e+02 0 0 0
6528 187 3 0.0000000000000000e+00 -1.1322326503059681e+02 -4.3094813834149228e+01 -1.8443300953009395e+02 0 0 0
1387 40 2 0.0000000000000000e+00 -1.2929188064997300e+02 -2.3274037325624668e+01 -1.9490065742368969e+02 0 0 0
1388 40 2 0.0000000000000000e+00 -1.2305964206993004e+02 -2.3733945640292511e+01 -1.8676447868346551e+02 0 0 0
6529 187 4 0.0000000000000000e+00 -1.1101536010721725e+02 -3.4210009085993306e+01 -1.8752954364837541e+02 0 0 0
6530 187 4 0.0000000000000000e+00 -1.0394398621403617e+02 -3.4040431252250123e+01 -1.9473446943832241e+02 0 0 0
6532 187 4 0.0000000000000000e+00 -1.0512716020739815e+02 -1.8214125394105583e+01 -1.9407194910414410e+02 0 0 0
6533 187 4 0.0000000000000000e+00 -1.0762059236344346e+02 -1.7448449466200831e+01 -1.8503873436816457e+02 0 0 0
5559 159 4 0.0000000000000000e+00 -5.1277521300818954e+01 -1.7598426070350378e+01 -1.9340655206438649e+02 0 0 0
5558 159 4 0.0000000000000000e+00 -4.7489751584616968e+01 -1.7475915972259045e+01 -1.8435631118829846e+02 0 0 0
2938 84 2 0.0000000000000000e+00 -6.0218062857777632e+01 -3.2658065496382882e+00 -1.9016300719268318e+02 0 0 0
2922 84 2 0.0000000000000000e+00 -1.4723073098996682e+02 1.8771893681569200e+01 -1.8865283821780758e+02 0 0 0
6190 177 4 0.0000000000000000e+00 -1.1103097115548933e+02 5.9288815440187488e+00 -1.9020109608026462e+02 0 0 0
2932 84 2 0.0000000000000000e+00 -9.8283748879803738e+01 1.2219741658223725e+01 -1.9054605861377470e+02 0 0 0
4932 141 3 0.0000000000000000e+00 -6.3496304284989172e+01 8.3587645844579299e+00 -1.8353265910599345e+02 0 0 0
4931 141 4 0.0000000000000000e+00 -6.7243564477899781e+01 1.6272931231419669e+01 -1.8811737641765839e+02 0 0 0
4933 141 4 0.0000000000000000e+00 -5.7297805632153697e+01 8.9346762010320084e+00 -1.9115976407587493e+02 0 0 0
4934 141 4 0.0000000000000000e+00 -4.9603606396597108e+01 1.4954209132032853e+01 -1.8938870050928281e+02 0 0 0
4935 141 4 0.0000000000000000e+00 -4.0021222997256551e+01 1.5866957409394828e+01 -1.9089070646097824e+02 0 0 0
2921 84 2 0.0000000000000000e+00 -1.5079983860576561e+02 2.8532646971798478e+01 -1.8902767303244539e+02 0 0 0
4930 141 4 0.0000000000000000e+00 -6.0016197320908539e+01 2.1468396072541832e+01 -1.9209517464980200e+02 0 0 0
3375 97 2 0.0000000000000000e+00 -6.3056834808960787e+01 2.6484900305504556e+01 -1.8331361637818014e+02 0 0 0
6033 173 4 0.0000000000000000e+00 -3.2754624672208060e+01 2.4179498743094808e+01 -1.9192984660862146e+02 0 0 0
2920 84 2 0.0000000000000000e+00 -1.5197783282235901e+02 3.8290853258829863e+01 -1.8812601533615359e+02 0 0 0
2918 84 2 0.0000000000000000e+00 -1.3648502654469854e+02 4.0101552785266847e+01 -1.9349988929245833e+02 0 0 0
2919 84 2 0.0000000000000000e+00 -1.4513509143235913e+02 4.4700467416725047e+01 -1.9118786814823122e+02 0 0 0
5914 169 4 0.0000000000000000e+00 -1.3686263869382356e+02 4.4926424717754522e+01 -1.8275328709877252e+02 0 0 0
2917 84 2 0.0000000000000000e+00 -1.2710620974372893e+02 3.5824346684500938e+01 -1.9543314485939669e+02 0 0 0
563 17 2 0.0000000000000000e+00 -5.5294062806238003e+01 4.5631342504446899e+01 -1.8978658909775464e+02 0 0 0
564 17 1 0.0000000000000000e+00 -4.4809608139421741e+01 4.5047387831620291e+01 -1.9141570582641896e+02 0 0 0
565 17 2 0.0000000000000000e+00 -3.5345461534065151e+01 4.4524713613986933e+01 -1.9232295590179089e+02 0 0 0
3325 95 2 0.0000000000000000e+00 -2.1746303136009067e+02 5.1559966922508814e+01 -1.8653110702218387e+02 0 0 0
2914 84 2 0.0000000000000000e+00 -1.2743439812906418e+02 5.9929803968340821e+01 -1.9236067715770545e+02 0 0 0
6227 178 3 0.0000000000000000e+00 -8.5876857836360458e+01 5.7484507291749878e+01 -1.8483351836204628e+02 0 0 0
6228 178 4 0.0000000000000000e+00 -8.6106275772717922e+01 5.6332339259165003e+01 -1.9433398534935677e+02 0 0 0
4925 141 3 0.0000000000000000e+00 -4.8947797098473700e+01 5.5481899251935388e+01 -1.9541405099509115e+02 0 0 0
2803 81 2 0.0000000000000000e+00 -4.2237960165323436e+01 -1.3338605438352300e+02 -1.7743893312037022e+02 0 0 0
2801 81 2 0.0000000000000000e+00 -5.5297933352312228e+01 -1.2711178197578927e+02 -1.7345141436914986e+02 0 0 0
6324 181 4 0.0000000000000000e+00 -4.8390055586639832e+01 -1.1883220737172900e+02 -1.7821915312034997e+02 0 0 0
2804 81 1 0.0000000000000000e+00 -3.5540683063361271e+01 -1.2602742804642627e+02 -1.7661870644627055e+02 0 0 0
2805 81 2 0.0000000000000000e+00 -2.7779381138031237e+01 -1.2133289179484709e+02 -1.7962257154767238e+02 0 0 0
6322 181 4 0.0000000000000000e+00 -6.4552185693853062e+01 -1.1258384544466054e+02 -1.8063743585843704e+02 0 0 0
6321 181 4 0.0000000000000000e+00 -6.3040879422279744e+01 -1.0508738184120288e+02 -1.7448643579507456e+02 0 0 0
6325 181 3 0.0000000000000000e+00 -3.9327834133291667e+01 -1.1625830328050957e+02 -1.8021883488636644e+02 0 0 0
6326 181 4 0.0000000000000000e+00 -3.1560007635801167e+01 -1.1073160491906157e+02 -1.7805705975985239e+02 0 0 0
6320 181 4 0.0000000000000000e+00 -6.5843061247583137e+01 -9.5517514587491704e+01 -1.7746773544301180e+02 0 0 0
6319 181 4 0.0000000000000000e+00 -5.9389487848659158e+01 -9.3974496282832121e+01 -1.6970920559449982e+02 0 0 0
1522 44 2 0.0000000000000000e+00 -4.3356531412039629e+01 -9.0101078235003996e+01 -1.8005858528802744e+02 0 0 0
1523 44 1 0.0000000000000000e+00 -4.3830228041355475e+01 -9.3558399699066911e+01 -1.7093183400556416e+02 0 0 0
4196 120 4 0.0000000000000000e+00 -8.5210769571962459e+01 -8.1406034230476948e+01 -1.7675540611370485e+02 0 0 0
1375 40 2 0.0000000000000000e+00 -7.6228993197953130e+01 -8.7824810825579391e+01 -1.7531184908839191e+02 0 0 0
6318 181 3 0.0000000000000000e+00 -5.2720856849183527e+01 -8.6710270103518639e+01 -1.7048041241056114e+02 0 0 0
6317 181 4 0.0000000000000000e+00 -4.7694490419396757e+01 -7.9333355029441933e+01 -1.7360514390302617e+02 0 0 0
6525 187 4 0.0000000000000000e+00 -1.2759906653555366e+02 -6.5879004819302551e+01 -1.7313146170706679e+02 0 0 0
6316 181 4 0.0000000000000000e+00 -4.9888694799165513e+01 -7.2736119849354850e+01 -1.8049165708442129e+02 0 0 0
6526 187 4 0.0000000000000000e+00 -1.2462708320396763e+02 -5.6950433439246517e+01 -1.7708506424294450e+02 0 0 0
6527 187 4 0.0000000000000000e+00 -1.2074428942511000e+02 -4.8501364343576782e+01 -1.8034494301448669e+02 0 0 0
1389 40 2 0.0000000000000000e+00 -1.2282434057067046e+02 -2.3087575030104567e+01 -1.7696391566336416e+02 0 0 0
5557 159 4 0.0000000000000000e+00 -4.1968588534907269e+01 -2.2108704198912850e+01 -1.7686517564474968e+02 0 0 0
5556 159 4 0.0000000000000000e+00 -3.3347576386774151e+01 -2.3069387104534105e+01 -1.7358254140020836e+02 0 0 0
6534 187 4 0.0000000000000000e+00 -1.1151404605266696e+02 -1.1690194064752990e+01 -1.7762621503525864e+02 0 0 0
6535 187 3 0.0000000000000000e+00 -1.1877292354431215e+02 -1.1815145070303371e+01 -1.7012615642809513e+02 0 0 0
2939 84 2 0.0000000000000000e+00 -5.8729301432325919e+01 -9.0218997641571779e+00 -1.8143377461575008e+02 0 0 0
2940 84 2 0.0000000000000000e+00 -5.5277475661826550e+01 -1.5091231794143811e+01 -1.7431564721738013e+02 0 0 0
5910 169 4 0.0000000000000000e+00 -1.6236259984189854e+02 1.9333672669838961e+01 -1.7207479239765607e+02 0 0 0
2923 84 1 0.0000000000000000e+00 -1.4435558727913536e+02 1.8605358571163507e+01 -1.7903366289650788e+02 0 0 0
6193 177 4 0.0000000000000000e+00 -1.2630729271730247e+02 1.0807366082494775e+01 -1.7210552398990225e+02 0 0 0
6191 177 4 0.0000000000000000e+00 -1.1181122193418403e+02 5.7863245197439763e+00 -1.8022272307034123e+02 0 0 0
6192 177 3 0.0000000000000000e+00 -1.1603882184287971e+02 9.9679706115880133e+00 -1.7209962122973218e+02 0 0 0
2931 84 2 0.0000000000000000e+00 -9.9603977620265397e+01 9.8919189538424366e+00 -1.8135343152483497e+02 0 0 0
2930 84 1 0.0000000000000000e+00 -1.0629959713748390e+02 1.3966234237090262e+01 -1.7555932524276565e+02 0 0 0
3378 97 1 0.0000000000000000e+00 -5.6839105847054782e+01 7.7640709473199081e+00 -1.7436580316609863e+02 0 0 0
3377 97 2 0.0000000000000000e+00 -4.9720875683007364e+01 1.3433546343864759e+01 -1.7879718903926167e+02 0 0 0
6036 173 4 0.0000000000000000e+00 -3.2359387691167939e+01 1.4033946295126672e+01 -1.6942306846574533e+02 0 0 0
5911 169 4 0.0000000000000000e+00 -1.5311543660029014e+02 2.3851885449048076e+01 -1.7213592598512486e+02 0 0 0
2924 84 2 0.0000000000000000e+00 -1.3941772377694593e+02 2.3755856006476847e+01 -1.7241555465187011e+02 0 0 0
5912 169 3 0.0000000000000000e+00 -1.4758639598960625e+02 2.9745296833026497e+01 -1.7761932643711356e+02 0 0 0
2928 84 2 0.0000000000000000e+00 -1.1039393849543519e+02 2.6416827831400997e+01 -1.6938201198224684e+02 0 0 0
3376 97 2 0.0000000000000000e+00 -5.4405607274045103e+01 2.2056774228551049e+01 -1.7964504272708106e+02 0 0 0
2925 84 2 0.0000000000000000e+00 -1.3606389101668651e+02 3.3225256735571726e+01 -1.7325742743250962e+02 0 0 0
5913 169 4 0.0000000000000000e+00 -1.4249585338760755e+02 3.8308957612587271e+01 -1.7859803141385783e+02 0 0 0
2926 84 2 0.0000000000000000e+00 -1.2663974681367884e+02 3.4908312791495810e+01 -1.7522796897286131e+02 0 0 0
5915 169 4 0.0000000000000000e+00 -1.2675345713696946e+02 4.5833843191293425e+01 -1.8147632903475832e+02 0 0 0
2927 84 2 0.0000000000000000e+00 -1.1680012097317334e+02 3.3869151297128845e+01 -1.7270264205350682e+02 0 0 0
3374 97 2 0.0000000000000000e+00 -7.0315771575168824e+01 3.3269318607379716e+01 -1.8026564982763327e+02 0 0 0
3373 97 2 0.0000000000000000e+00 -7.6166025143627934e+01 4.1650430660640858e+01 -1.7943480571718806e+02 0 0 0
562 17 2 0.0000000000000000e+00 -6.0233241572638811e+01 4.1645345814968508e+01 -1.8178968862960758e+02 0 0 0
561 17 2 0.0000000000000000e+00 -6.0045785344744125e+01 4.1956915572843634e+01 -1.7170736886862568e+02 0 0 0
3324 95 2 0.0000000000000000e+00 -2.1760658476521218e+02 5.2438881518549486e+01 -1.7655344913191928e+02 0 0 0
3323 95 2 0.0000000000000000e+00 -2.1091326428303879e+02 5.1211228930422216e+01 -1.6980778896598588e+02 0 0 0
6290 180 3 0.0000000000000000e+00 -1.9839498287895458e+02 5.9867740694035326e+01 -1.6828642726957696e+02 0 0 0
3372 97 2 0.0000000000000000e+00 -7.6280370370784837e+01 5.1410322533721626e+01 -1.7790991041158193e+02 0 0 0
4839 139 4 0.0000000000000000e+00 -4.7314722887898611e+01 -1.1291559230857213e+02 -1.6277480406990730e+02 0 0 0
4838 139 4 0.0000000000000000e+00 -5.2426850710904354e+01 -1.1593341278664531e+02 -1.5464462140506370e+02 0 0 0
4840 139 4 0.0000000000000000e+00 -3.9253794582325554e+01 -1.0814455860578245e+02 -1.5816259922071706e+02 0 0 0
4841 139 3 0.0000000000000000e+00 -3.0154318373507760e+01 -1.0402756167664818e+02 -1.5663194119307391e+02 0 0 0
6521 187 3 0.0000000000000000e+00 -1.0409424470676582e+02 -9.2001818774060126e+01 -1.5900962861868587e+02 0 0 0
1530 44 1 0.0000000000000000e+00 -9.7055628216484465e+01 -9.4683862104008057e+01 -1.6774993173767618e+02 0 0 0
1529 44 2 0.0000000000000000e+00 -9.0838092287914108e+01 -9.8885311026994771e+01 -1.6110197845067540e+02 0 0 0
1527 44 2 0.0000000000000000e+00 -7.0682560440436859e+01 -1.0053955991226954e+02 -1.6229921302925158e+02 0 0 0
1528 44 2 0.0000000000000000e+00 -8.0570587745406030e+01 -9.9795268976071711e+01 -1.6141773881493367e+02 0 0 0
1526 44 2 0.0000000000000000e+00 -6.1147274120088319e+01 -1.0143458574794921e+02 -1.5865063941935563e+02 0 0 0
1524 44 2 0.0000000000000000e+00 -4.3902412845607088e+01 -9.8179518316672613e+01 -1.6175998021603220e+02 0 0 0
1525 44 2 0.0000000000000000e+00 -5.1068986003770014e+01 -1.0215964128217610e+02 -1.5592655781335182e+02 0 0 0
2230 64 1 0.0000000000000000e+00 -3.4135154583836133e+01 -9.4439801349538257e+01 -1.5878071339691496e+02 0 0 0
6523 187 4 0.0000000000000000e+00 -1.1932327705137520e+02 -8.1528985891527796e+01 -1.6517938313392330e+02 0 0 0
6522 187 4 0.0000000000000000e+00 -1.1103676105232182e+02 -8.7274876361271126e+01 -1.6456519902787696e+02 0 0 0
1531 44 2 0.0000000000000000e+00 -9.5617098946156261e+01 -8.5574204101696552e+01 -1.6219559747696280e+02 0 0 0
1373 40 2 0.0000000000000000e+00 -8.5890733141123960e+01 -8.9380303789539454e+01 -1.5871476118569066e+02 0 0 0
4195 120 4 0.0000000000000000e+00 -8.5028055678385741e+01 -7.8112750989350900e+01 -1.6682360934372491e+02 0 0 0
4194 120 4 0.0000000000000000e+00 -8.2606005855400568e+01 -7.7423632219531569e+01 -1.5696970582429390e+02 0 0 0
1374 40 2 0.0000000000000000e+00 -8.1482959898496730e+01 -8.8169755480456999e+01 -1.6733357353206409e+02 0 0 0
2231 64 2 0.0000000000000000e+00 -3.0659949654211140e+01 -8.8706217351307345e+01 -1.6655721185193840e+02 0 0 0
6524 187 4 0.0000000000000000e+00 -1.2364559299548435e+02 -7.2910441239296730e+01 -1.6705694932265024e+02 0 0 0
3197 92 2 0.0000000000000000e+00 -6.5594639957045516e+01 -4.6176389544019607e+01 -1.6013588249799017e+02 0 0 0
3198 92 2 0.0000000000000000e+00 -6.0779821357810235e+01 -3.8131588296519219e+01 -1.5769368310330756e+02 0 0 0
1390 40 1 0.0000000000000000e+00 -1.1993783322632341e+02 -2.3392612868067360e+01 -1.6718052817376034e+02 0 0 0
5326 153 4 0.0000000000000000e+00 -8.0051908131956353e+01 -3.4059586729576388e+01 -1.5513444526174638e+02 0 0 0
3199 92 2 0.0000000000000000e+00 -5.7810847651694480e+01 -2.8873875800165763e+01 -1.5948959416369644e+02 0 0 0
2536 73 2 0.0000000000000000e+00 -1.3436533909163535e+02 -1.0235940641114391e+01 -1.5685158583612278e+02 0 0 0
6537 187 4 0.0000000000000000e+00 -1.2246338830812580e+02 -2.0380312171519449e+01 -1.5451134938038246e+02 0 0 0
6536 187 4 0.0000000000000000e+00 -1.2288328353913845e+02 -1.2465269658241228e+01 -1.6090001671820525e+02 0 0 0
1391 40 2 0.0000000000000000e+00 -1.1497545772180874e+02 -1.8307870796509427e+01 -1.6023793959061322e+02 0 0 0
3200 92 2 0.0000000000000000e+00 -5.3042857475581492e+01 -2.0425609154783814e+01 -1.5711552062140612e+02 0 0 0
3201 92 2 0.0000000000000000e+00 -5.0680773769988619e+01 -1.2637004653732136e+01 -1.6241159609816958e+02 0 0 0
3380 97 2 0.0000000000000000e+00 -6.6476007266213628e+01 3.9919341325981179e+00 -1.5875387680739340e+02 0 0 0
3202 92 2 0.0000000000000000e+00 -4.3642340361435821e+01 -6.8493533549329868e+00 -1.6738212165236320e+02 0 0 0
3204 92 2 0.0000000000000000e+00 -2.9098102260222909e+01 4.7963685203699535e+00 -1.6064125804115992e+02 0 0 0
6038 173 3 0.0000000000000000e+00 -4.0349662423818252e+01 2.9812432599744301e+00 -1.5626569614947775e+02 0 0 0
3203 92 1 0.0000000000000000e+00 -3.4980152051752185e+01 -1.4992001951318725e+00 -1.6520297001771007e+02 0 0 0
5909 169 4 0.0000000000000000e+00 -1.6025671025917075e+02 1.1632016498725084e+01 -1.6723337256009333e+02 0 0 0
5908 169 4 0.0000000000000000e+00 -1.5288931302775387e+02 1.3322603696607727e+01 -1.6029113298562737e+02 0 0 0
6194 177 4 0.0000000000000000e+00 -1.2935763373340228e+02 1.6982808327150625e+01 -1.6540786168434235e+02 0 0 0
2929 84 2 0.0000000000000000e+00 -1.0874686802398347e+02 1.6892689646198519e+01 -1.6609330969524936e+02 0 0 0
3379 97 2 0.0000000000000000e+00 -6.4243097403608587e+01 7.1722552466210923e+00 -1.6782449050091989e+02 0 0 0
6037 173 4 0.0000000000000000e+00 -3.9189639714924432e+01 1.0758242895876695e+01 -1.6244201571776793e+02 0 0 0
5907 169 4 0.0000000000000000e+00 -1.4674607421962131e+02 1.9605410018127465e+01 -1.5542953734963407e+02 0 0 0
5906 169 4 0.0000000000000000e+00 -1.4260347364552206e+02 2.8040481026258199e+01 -1.5437370983308483e+02 0 0 0
6195 177 4 0.0000000000000000e+00 -1.2990272812142717e+02 2.6982069628627134e+01 -1.6468120193087466e+02 0 0 0
5484 157 4 0.0000000000000000e+00 -4.8947260581819648e+01 2.9169938929639240e+01 -1.5482849379326851e+02 0 0 0
1741 50 2 0.0000000000000000e+00 -1.6422889472930373e+02 3.4679681959709555e+01 -1.5443225405692780e+02 0 0 0
3322 95 1 0.0000000000000000e+00 -2.0327131627444714e+02 5.2198295208364115e+01 -1.6304084958831160e+02 0 0 0
3321 95 2 0.0000000000000000e+00 -1.9725439974119359e+02 5.6562366365580857e+01 -1.5638767467401513e+02 0 0 0
5903 169 4 0.0000000000000000e+00 -1.3431356307753990e+02 4.9252477558482973e+01 -1.5633007405053425e+02 0 0 0
5902 169 4 0.0000000000000000e+00 -1.3047384448415588e+02 5.8312488446708571e+01 -1.5666989018238704e+02 0 0 0
2215 64 2 0.0000000000000000e+00 -9.2944208386351434e+01 -1.4593892401989251e+02 -1.4460693460820190e+02 0 0 0
2210 64 2 0.0000000000000000e+00 -5.3711463735697897e+01 -1.4526845695248434e+02 -1.4145577581222264e+02 0 0 0
2214 64 2 0.0000000000000000e+00 -8.8828711319727361e+01 -1.4234354052642379e+02 -1.5398413798095760e+02 0 0 0
2213 64 2 0.0000000000000000e+00 -8.0374100512811566e+01 -1.3720614493592089e+02 -1.5294381828151242e+02 0 0 0
2212 64 2 0.0000000000000000e+00 -7.1495697029825251e+01 -1.3826681275838220e+02 -1.4775957740857982e+02 0 0 0
2211 64 2 0.0000000000000000e+00 -6.2134771372843730e+01 -1.4250668118139143e+02 -1.4621584070894755e+02 0 0 0
2208 64 2 0.0000000000000000e+00 -3.5229131326436530e+01 -1.4424069106994756e+02 -1.4114657408932896e+02 0 0 0
2207 64 2 0.0000000000000000e+00 -2.9078971077325296e+01 -1.3629092808829981e+02 -1.4282606607375661e+02 0 0 0