LAMMPS data file via write_data, version 5 Jun 2019, timestep = 310000000

7000 atoms
4 atom types
7264 bonds
3 bond types
6600 angles
2 angle types

-5.0000000000000000e+02 5.0000000000000000e+02 xlo xhi
-5.0000000000000000e+02 5.0000000000000000e+02 ylo yhi
-5.0000000000000000e+02 5.0000000000000000e+02 zlo zhi

Masses

1 1000
2 1000
3 1000
4 1000

Pair Coeffs # lj/cut

1 0.178 10
2 0.178 10
3 0.178 10
4 0.178 10

Angle Coeffs # cosine

1 2
2 2

Atoms # full

6327 181 4 0.0000000000000000e+00 -7.3453351495752528e+01 -6.5801224792058591e+01 -2.2114041197430970e+02 0 0 0
6328 181 4 0.0000000000000000e+00 -7.2059240995901376e+01 -5.6558212476990001e+01 -2.2465148304390976e+02 0 0 0
6329 181 4 0.0000000000000000e+00 -7.3242955329809149e+01 -4.8929856045081507e+01 -2.1833659452455069e+02 0 0 0
2091 60 2 0.0000000000000000e+00 -7.3853839362127374e+01 -1.7719783566484068e+01 -2.1997098869267492e+02 0 0 0
6324 181 4 0.0000000000000000e+00 -6.4525383702372523e+01 -8.7701826381624954e+01 -2.0344068462217231e+02 0 0 0
6326 181 4 0.0000000000000000e+00 -7.0188000892910651e+01 -7.3967123450901141e+01 -2.1616820280935579e+02 0 0 0
6325 181 3 0.0000000000000000e+00 -6.7081983415089155e+01 -8.2944528052837754e+01 -2.1214758623883699e+02 0 0 0
6510 186 4 0.0000000000000000e+00 -1.7106446244748335e+02 -4.8543838406420832e+01 -2.0344955672964727e+02 0 0 0
6258 179 4 0.0000000000000000e+00 -9.8892270661854710e+01 -4.6084345747504173e+01 -2.0481211283360776e+02 0 0 0
6257 179 4 0.0000000000000000e+00 -9.2820627982233532e+01 -5.3530273838553377e+01 -2.0678483066159035e+02 0 0 0
6335 181 4 0.0000000000000000e+00 -1.1421965093159736e+02 -4.0119489890109300e+01 -2.0860047400826502e+02 0 0 0
6334 181 4 0.0000000000000000e+00 -1.0757045448683918e+02 -3.2894206878492518e+01 -2.0688477577263751e+02 0 0 0
6331 181 4 0.0000000000000000e+00 -8.3802329611706028e+01 -3.6221932766085629e+01 -2.1295987365868746e+02 0 0 0
6330 181 4 0.0000000000000000e+00 -7.4992533681678893e+01 -4.1389631677632771e+01 -2.1240895259205698e+02 0 0 0
6333 181 4 0.0000000000000000e+00 -1.0074151855600532e+02 -2.8182747691879872e+01 -2.1161015331424144e+02 0 0 0
6332 181 3 0.0000000000000000e+00 -9.0635536501378354e+01 -2.8342729324998302e+01 -2.1264423190802833e+02 0 0 0
2090 60 1 0.0000000000000000e+00 -8.1379717510365538e+01 -2.2573972178178657e+01 -2.1560659397553042e+02 0 0 0
2089 60 2 0.0000000000000000e+00 -7.8860690685836417e+01 -2.6941711077450744e+01 -2.0706124791941775e+02 0 0 0
2093 60 2 0.0000000000000000e+00 -6.1181280909957479e+01 -2.0488589225839011e+01 -2.0790520617683612e+02 0 0 0
2094 60 2 0.0000000000000000e+00 -5.7504963112129580e+01 -2.9502889512360557e+01 -2.0518372984644503e+02 0 0 0
2095 60 2 0.0000000000000000e+00 -4.6865148633157702e+01 -3.0254723885683603e+01 -2.0497218838612233e+02 0 0 0
2092 60 2 0.0000000000000000e+00 -6.5634231362835251e+01 -1.5036443205595498e+01 -2.1508045526762791e+02 0 0 0
482 14 2 0.0000000000000000e+00 -3.0435023192399040e+01 2.3793748871799956e+01 -2.1561186389405998e+02 0 0 0
481 14 2 0.0000000000000000e+00 -3.6413811791459139e+01 3.0435820051059590e+01 -2.1130021139261385e+02 0 0 0
6323 181 4 0.0000000000000000e+00 -6.0606643227319388e+01 -9.1436512937509605e+01 -1.9472141339309843e+02 0 0 0
5428 156 4 0.0000000000000000e+00 -4.0566005077793065e+01 -8.7267513259387556e+01 -1.9039162826128404e+02 0 0 0
6508 186 4 0.0000000000000000e+00 -1.6696196325529215e+02 -6.6813606002917609e+01 -1.9695984211026860e+02 0 0 0
6507 186 3 0.0000000000000000e+00 -1.5891928369513812e+02 -6.8154798806467085e+01 -1.9100434288752885e+02 0 0 0
2803 81 2 0.0000000000000000e+00 -1.4712673383912306e+02 -6.2324366451690167e+01 -2.0148170288953983e+02 0 0 0
2804 81 1 0.0000000000000000e+00 -1.4817829543191334e+02 -6.7008702126616811e+01 -1.9276882289446013e+02 0 0 0
6509 186 4 0.0000000000000000e+00 -1.7082167996209657e+02 -5.7518096156054227e+01 -1.9923552542218306e+02 0 0 0
2802 81 2 0.0000000000000000e+00 -1.4131395235091372e+02 -5.4097034731210151e+01 -2.0164343453545018e+02 0 0 0
6256 179 4 0.0000000000000000e+00 -8.5159563099831317e+01 -5.0178307728754312e+01 -2.0113612878776866e+02 0 0 0
2086 60 2 0.0000000000000000e+00 -8.8525950430017659e+01 -4.7537915092552950e+01 -1.9118698241731306e+02 0 0 0
6255 179 3 0.0000000000000000e+00 -7.7758617818579239e+01 -4.6330720240768905e+01 -1.9546476487139779e+02 0 0 0
2801 81 2 0.0000000000000000e+00 -1.3806269738021098e+02 -4.4467755358745734e+01 -1.9988027749469228e+02 0 0 0
6259 179 4 0.0000000000000000e+00 -1.0488925634052345e+02 -4.1994643950556878e+01 -1.9804999523950369e+02 0 0 0
2088 60 2 0.0000000000000000e+00 -8.2985434724988224e+01 -3.5172564282822762e+01 -2.0259615508367631e+02 0 0 0
2087 60 2 0.0000000000000000e+00 -8.9882030219075020e+01 -4.1092429839151841e+01 -1.9843709721586930e+02 0 0 0
2083 60 1 0.0000000000000000e+00 -7.4668477073330251e+01 -3.6263995542722242e+01 -1.9233925651224453e+02 0 0 0
2081 60 2 0.0000000000000000e+00 -5.5331146562326744e+01 -3.7114288535282391e+01 -1.9713064665338365e+02 0 0 0
2082 60 2 0.0000000000000000e+00 -6.4932364004328221e+01 -3.6170019172672696e+01 -1.9315960078913886e+02 0 0 0
2080 60 2 0.0000000000000000e+00 -4.5747076837930166e+01 -3.5658781280163915e+01 -1.9312495428487031e+02 0 0 0
1716 50 2 0.0000000000000000e+00 -1.3505242009666841e+02 -2.6478183790336150e+01 -1.9110569677493825e+02 0 0 0
2096 60 2 0.0000000000000000e+00 -3.6655333674896106e+01 -2.9822965155561619e+01 -2.0312187014258353e+02 0 0 0
2098 60 2 0.0000000000000000e+00 -2.7276676446099589e+01 -2.7687451387600223e+01 -1.9014490735651972e+02 0 0 0
2097 60 1 0.0000000000000000e+00 -2.7403835613558279e+01 -3.0492396592229497e+01 -1.9959305440496487e+02 0 0 0
6195 177 4 0.0000000000000000e+00 -1.8864941350146935e+02 -1.5384729911179996e+01 -1.9080637933248440e+02 0 0 0
2488 72 2 0.0000000000000000e+00 -1.3614454901477447e+02 3.3644022192796994e+00 -1.9383010622191520e+02 0 0 0
2487 72 2 0.0000000000000000e+00 -1.4565400779907964e+02 3.1948920276396677e+00 -1.8983364388582032e+02 0 0 0
2489 72 1 0.0000000000000000e+00 -1.2620790160132522e+02 4.1987694831594444e+00 -1.9220365349708908e+02 0 0 0
2490 72 2 0.0000000000000000e+00 -1.2544101679927380e+02 1.2160549468398299e+01 -1.9821916596019284e+02 0 0 0
2491 72 2 0.0000000000000000e+00 -1.3064322735376047e+02 1.8393616977604971e+01 -1.9260827378197661e+02 0 0 0
6321 181 4 0.0000000000000000e+00 -5.3579067686051147e+01 -1.0315563955186813e+02 -1.8352520181968788e+02 0 0 0
5426 156 4 0.0000000000000000e+00 -4.1300171344443072e+01 -1.0649161610840964e+02 -1.8477541930530441e+02 0 0 0
6320 181 4 0.0000000000000000e+00 -4.7217552289242605e+01 -1.0648652697583934e+02 -1.7695536122312018e+02 0 0 0
1617 47 2 0.0000000000000000e+00 -5.5586360785384421e+01 -9.0117575757789695e+01 -1.7639261577102616e+02 0 0 0
6322 181 4 0.0000000000000000e+00 -5.3518267528335791e+01 -9.5313467368670075e+01 -1.8958291721538990e+02 0 0 0
5427 156 4 0.0000000000000000e+00 -3.9189542899434507e+01 -9.6471636918195657e+01 -1.8758596234695796e+02 0 0 0
1373 40 2 0.0000000000000000e+00 -8.3326875551371870e+01 -8.3575767124950687e+01 -1.7666577688049509e+02 0 0 0
1618 47 2 0.0000000000000000e+00 -5.1301173605893922e+01 -8.1408505430796666e+01 -1.7669052124017801e+02 0 0 0
5429 156 3 0.0000000000000000e+00 -3.2013323539830829e+01 -8.1960798380213816e+01 -1.8773010905842040e+02 0 0 0
1620 47 2 0.0000000000000000e+00 -3.6778001484123720e+01 -7.4120263907626338e+01 -1.7692138603109748e+02 0 0 0
1621 47 1 0.0000000000000000e+00 -2.7155295065170712e+01 -7.4890644216694469e+01 -1.8051794340477215e+02 0 0 0
6505 186 4 0.0000000000000000e+00 -1.6387724151393380e+02 -6.3323064606073117e+01 -1.8037109914588905e+02 0 0 0
6506 186 4 0.0000000000000000e+00 -1.5562828443349812e+02 -6.8289203890335656e+01 -1.8190933513929645e+02 0 0 0
2805 81 2 0.0000000000000000e+00 -1.4403733582678552e+02 -6.7452374096430788e+01 -1.8354604599158318e+02 0 0 0
2808 81 2 0.0000000000000000e+00 -1.2651456859072729e+02 -5.5629074550070115e+01 -1.7775536823563957e+02 0 0 0
2809 81 2 0.0000000000000000e+00 -1.1776715021315543e+02 -5.1156544141922410e+01 -1.8073083252661479e+02 0 0 0
6261 179 4 0.0000000000000000e+00 -1.0162525260752390e+02 -4.6451635264165517e+01 -1.8357908487940435e+02 0 0 0
6253 179 4 0.0000000000000000e+00 -7.9857826596309636e+01 -5.3313774572318728e+01 -1.8321303284051072e+02 0 0 0
6254 179 4 0.0000000000000000e+00 -7.2701886089141070e+01 -4.8268888268485561e+01 -1.8765679251434085e+02 0 0 0
6260 179 4 0.0000000000000000e+00 -1.0544936522253136e+02 -3.8186353373597967e+01 -1.8863596363555297e+02 0 0 0
2085 60 2 0.0000000000000000e+00 -8.6741243343405060e+01 -4.3199253876255455e+01 -1.8267064237366881e+02 0 0 0
2084 60 2 0.0000000000000000e+00 -7.7710621628239707e+01 -3.8571866263952408e+01 -1.8272807805779706e+02 0 0 0
2079 60 2 0.0000000000000000e+00 -4.2710310986641062e+01 -4.0158534204646294e+01 -1.8518661479218582e+02 0 0 0
2078 60 2 0.0000000000000000e+00 -3.4141970665290252e+01 -3.8728451128659259e+01 -1.8014801004358068e+02 0 0 0
6194 177 4 0.0000000000000000e+00 -1.7914786493688732e+02 -1.9850372968514066e+01 -1.8941965370372608e+02 0 0 0
6193 177 4 0.0000000000000000e+00 -1.7230495904327799e+02 -2.6542453584598967e+01 -1.8630932260772636e+02 0 0 0
6192 177 3 0.0000000000000000e+00 -1.6643420506065377e+02 -2.8729938016086919e+01 -1.7842452571628917e+02 0 0 0
1718 50 2 0.0000000000000000e+00 -1.5132966563446533e+02 -2.9161831658496595e+01 -1.8201672797374275e+02 0 0 0
1717 50 2 0.0000000000000000e+00 -1.4206754326382324e+02 -3.0662979594955036e+01 -1.8525348687929645e+02 0 0 0
2813 81 2 0.0000000000000000e+00 -1.0580487750311347e+02 -2.5063942190316791e+01 -1.7640969641818657e+02 0 0 0
5537 159 4 0.0000000000000000e+00 -6.4153807805808157e+01 -2.6770080618835863e+01 -1.8152033911285207e+02 0 0 0
2486 72 2 0.0000000000000000e+00 -1.5548333615018518e+02 6.5761318066450114e+00 -1.8814383310053563e+02 0 0 0
6188 177 4 0.0000000000000000e+00 -1.5139045007629983e+02 1.1269086285412804e+00 -1.7826446298991075e+02 0 0 0
2940 84 2 0.0000000000000000e+00 -1.1242874859199564e+02 1.1041844281128941e+00 -1.8111686107852586e+02 0 0 0
6187 177 4 0.0000000000000000e+00 -1.4980284240227149e+02 1.0702612872817097e+01 -1.7969165078920975e+02 0 0 0
6186 177 4 0.0000000000000000e+00 -1.4213032485670166e+02 1.2168511789042240e+01 -1.8480734569375076e+02 0 0 0
6185 177 3 0.0000000000000000e+00 -1.3190528975420315e+02 1.1355938936911596e+01 -1.8517561644741201e+02 0 0 0
6184 177 4 0.0000000000000000e+00 -1.2318851625106053e+02 1.5417172355507120e+01 -1.8282677049394766e+02 0 0 0
4753 136 4 0.0000000000000000e+00 -3.6899006198690586e+01 2.0903954995075296e+01 -1.7857362702456319e+02 0 0 0
2492 72 2 0.0000000000000000e+00 -1.3453243600618993e+02 2.5093267769440100e+01 -1.8677001115748629e+02 0 0 0
2493 72 2 0.0000000000000000e+00 -1.2513366095865165e+02 2.7295365118914145e+01 -1.8484799181732177e+02 0 0 0
2494 72 2 0.0000000000000000e+00 -1.1781348190666913e+02 3.0553886750851145e+01 -1.7959838232686445e+02 0 0 0
1611 47 2 0.0000000000000000e+00 -5.5836734271252837e+01 -1.4192462020159721e+02 -1.6497541496418910e+02 0 0 0
6239 179 4 0.0000000000000000e+00 -9.9676461088027196e+01 -1.1991447569863080e+02 -1.6367111229954341e+02 0 0 0
6241 179 3 0.0000000000000000e+00 -1.1385439997712798e+02 -1.0575581992123556e+02 -1.6347824810734770e+02 0 0 0
1370 40 2 0.0000000000000000e+00 -1.0334446486486172e+02 -1.0178570907182844e+02 -1.6509285521320547e+02 0 0 0
1615 47 2 0.0000000000000000e+00 -5.5473181340850950e+01 -1.0661012692708290e+02 -1.6611683402475055e+02 0 0 0
6319 181 4 0.0000000000000000e+00 -4.2495275963398960e+01 -1.1050010545198455e+02 -1.6880556281057832e+02 0 0 0
6242 179 4 0.0000000000000000e+00 -1.1910241797726287e+02 -9.8486853362709525e+01 -1.6699967367448892e+02 0 0 0
6243 179 4 0.0000000000000000e+00 -1.1771521880111690e+02 -8.8729986772135618e+01 -1.6343781495331865e+02 0 0 0
1371 40 2 0.0000000000000000e+00 -9.5114740204589992e+01 -9.6537458032357975e+01 -1.6776423736245457e+02 0 0 0
1372 40 2 0.0000000000000000e+00 -9.0631005875992102e+01 -8.8942710864575673e+01 -1.7225679750541616e+02 0 0 0
1616 47 2 0.0000000000000000e+00 -5.6372045186287323e+01 -9.8320290091912085e+01 -1.7127140082637354e+02 0 0 0
1374 40 2 0.0000000000000000e+00 -7.7716211856825041e+01 -7.5256918688608167e+01 -1.7588294834140353e+02 0 0 0
1619 47 2 0.0000000000000000e+00 -4.5063050189253545e+01 -7.3157367005089085e+01 -1.7266773551039762e+02 0 0 0
2806 81 2 0.0000000000000000e+00 -1.3792249650371252e+02 -6.6676358697399692e+01 -1.7570659337200013e+02 0 0 0
1375 40 2 0.0000000000000000e+00 -7.5481947019095188e+01 -6.5608165814354194e+01 -1.7136214665351375e+02 0 0 0
1376 40 1 0.0000000000000000e+00 -7.8217507670506961e+01 -5.9980835528340705e+01 -1.6391395326772059e+02 0 0 0
6504 186 4 0.0000000000000000e+00 -1.6657007976296828e+02 -5.5128065472142097e+01 -1.7527996018121939e+02 0 0 0
6503 186 4 0.0000000000000000e+00 -1.6181221032558392e+02 -5.0830463344795085e+01 -1.6734934153647868e+02 0 0 0
2807 81 2 0.0000000000000000e+00 -1.3603199350849943e+02 -5.6664072275750769e+01 -1.7486251592952158e+02 0 0 0
2810 81 2 0.0000000000000000e+00 -1.1072108237861612e+02 -4.6580219744716047e+01 -1.7493551523515470e+02 0 0 0
6263 179 4 0.0000000000000000e+00 -9.5757168452497822e+01 -5.5596883041016987e+01 -1.6730905039954482e+02 0 0 0
6262 179 3 0.0000000000000000e+00 -9.8184104330529919e+01 -5.0939340360641289e+01 -1.7577871384810268e+02 0 0 0
6252 179 4 0.0000000000000000e+00 -8.4857149392966917e+01 -4.9163972606453314e+01 -1.7516497246562781e+02 0 0 0
1719 50 1 0.0000000000000000e+00 -1.5652501388284475e+02 -3.1602302860470402e+01 -1.7367375542809253e+02 0 0 0
2811 81 1 0.0000000000000000e+00 -1.0294948581804051e+02 -4.1207454641015360e+01 -1.7140431469739121e+02 0 0 0
2812 81 2 0.0000000000000000e+00 -1.0003987525526628e+02 -3.1304844903143497e+01 -1.7043812819419495e+02 0 0 0
6251 179 4 0.0000000000000000e+00 -9.0168973094176380e+01 -4.2476975280586835e+01 -1.6934127712343835e+02 0 0 0
5539 159 4 0.0000000000000000e+00 -4.8609830518169105e+01 -3.3545018181921250e+01 -1.7140314848640355e+02 0 0 0
2077 60 2 0.0000000000000000e+00 -2.7612668682558144e+01 -3.7508434460584319e+01 -1.7305457531989182e+02 0 0 0
6191 177 4 0.0000000000000000e+00 -1.6376121914923479e+02 -2.2567767919943989e+01 -1.7162826828830651e+02 0 0 0
1720 50 2 0.0000000000000000e+00 -1.5684320602016899e+02 -2.9683454377058197e+01 -1.6376910477854551e+02 0 0 0
5558 159 4 0.0000000000000000e+00 -1.4498329208726778e+02 -2.8267589688468920e+01 -1.6618631846934716e+02 0 0 0
2815 81 2 0.0000000000000000e+00 -1.2053693577854042e+02 -2.9567711053054893e+01 -1.6995802138945629e+02 0 0 0
2814 81 2 0.0000000000000000e+00 -1.1489830928477741e+02 -2.2377855953893885e+01 -1.7423316370237688e+02 0 0 0
5538 159 4 0.0000000000000000e+00 -5.6370411239381760e+01 -2.9919758528620672e+01 -1.7597045254496751e+02 0 0 0
5536 159 4 0.0000000000000000e+00 -6.2635850120506703e+01 -1.8348372814673908e+01 -1.7601732156739200e+02 0 0 0
5540 159 4 0.0000000000000000e+00 -4.2796368273181855e+01 -3.0810293636760509e+01 -1.6396458723105573e+02 0 0 0
2075 60 2 0.0000000000000000e+00 -2.8094351495401011e+01 -1.9438390995958013e+01 -1.7200575728699437e+02 0 0 0
2076 60 1 0.0000000000000000e+00 -2.8694699516876618e+01 -2.8357651458353672e+01 -1.6910620706748546e+02 0 0 0
6189 177 4 0.0000000000000000e+00 -1.5344996010346921e+02 -8.0188669834215371e+00 -1.7487073324609287e+02 0 0 0
6190 177 4 0.0000000000000000e+00 -1.5784519968920227e+02 -1.4811140606127129e+01 -1.6863436427598057e+02 0 0 0
5560 159 4 0.0000000000000000e+00 -1.4677141657430275e+02 -1.0059511855813676e+01 -1.6467725413943472e+02 0 0 0
2937 84 1 0.0000000000000000e+00 -1.2832613924647021e+02 -4.2940245187768511e+00 -1.6527876780881562e+02 0 0 0
5535 159 4 0.0000000000000000e+00 -6.2831502148056572e+01 -9.6730627855860813e+00 -1.7160499675203019e+02 0 0 0
5534 159 3 0.0000000000000000e+00 -5.8711562329923638e+01 -3.6685440995725482e+00 -1.6460468224025718e+02 0 0 0
2074 60 2 0.0000000000000000e+00 -2.8755375317838848e+01 -1.0091838903113299e+01 -1.7283711916901339e+02 0 0 0
5561 159 4 0.0000000000000000e+00 -1.4368029538650075e+02 -2.4255364189465083e+00 -1.6972103444247560e+02 0 0 0
5562 159 3 0.0000000000000000e+00 -1.3496756573107081e+02 3.5786426107142426e+00 -1.6995592280104026e+02 0 0 0
5563 159 4 0.0000000000000000e+00 -1.2664184070110979e+02 9.0078008472719162e+00 -1.6834394465174077e+02 0 0 0
2939 84 2 0.0000000000000000e+00 -1.1109310711518754e+02 -2.4827166824944369e+00 -1.7132576232561854e+02 0 0 0
2938 84 2 0.0000000000000000e+00 -1.1832767127001340e+02 -2.9279079923413094e+00 -1.6430044425532614e+02 0 0 0
1529 44 2 0.0000000000000000e+00 -6.6051057180218692e+01 3.0339185745315969e+00 -1.6429522700655673e+02 0 0 0
6183 177 4 0.0000000000000000e+00 -1.1619187153411258e+02 1.6608263504320430e+01 -1.7517279315383794e+02 0 0 0
5564 159 4 0.0000000000000000e+00 -1.1910266308491229e+02 1.5070274567321082e+01 -1.6562239438800810e+02 0 0 0
6182 177 4 0.0000000000000000e+00 -1.0691641052061757e+02 1.9299346596474308e+01 -1.7381560867734098e+02 0 0 0
6181 177 4 0.0000000000000000e+00 -1.0801511699662038e+02 1.9791951636362423e+01 -1.6374404207207860e+02 0 0 0
1527 44 2 0.0000000000000000e+00 -7.2533397351461602e+01 1.5718106187276458e+01 -1.6581222823612981e+02 0 0 0
1528 44 2 0.0000000000000000e+00 -6.4218218852114788e+01 1.1625024930697457e+01 -1.6891914690969023e+02 0 0 0
4752 136 4 0.0000000000000000e+00 -3.2096857822887159e+01 1.3841526910886481e+01 -1.7452727390341133e+02 0 0 0
4754 136 4 0.0000000000000000e+00 -4.0350475269203443e+01 2.1976603194269078e+01 -1.6922660317217907e+02 0 0 0
2495 72 2 0.0000000000000000e+00 -1.1861456104068780e+02 3.2453030427993284e+01 -1.6996499501219157e+02 0 0 0
1612 47 2 0.0000000000000000e+00 -5.9758865814237140e+01 -1.3387949836333763e+02 -1.6101917675959751e+02 0 0 0
6238 179 4 0.0000000000000000e+00 -9.8050088503663545e+01 -1.2471169916874939e+02 -1.5442967480925097e+02 0 0 0
6237 179 4 0.0000000000000000e+00 -8.9531488182424383e+01 -1.2222863680629780e+02 -1.4985674381283681e+02 0 0 0
1614 47 1 0.0000000000000000e+00 -5.5980048369026093e+01 -1.1596718801334571e+02 -1.6109630368035130e+02 0 0 0
1613 47 2 0.0000000000000000e+00 -6.2176478682694693e+01 -1.2397124667362458e+02 -1.6076809743338782e+02 0 0 0
6240 179 4 0.0000000000000000e+00 -1.0766113566997996e+02 -1.1369098305798525e+02 -1.6256637836190868e+02 0 0 0
6317 181 4 0.0000000000000000e+00 -5.0060376966508620e+01 -1.1324592481593950e+02 -1.5057682261601889e+02 0 0 0
6318 181 3 0.0000000000000000e+00 -4.5345835958237970e+01 -1.1139971095828632e+02 -1.5925876378434074e+02 0 0 0
1369 40 1 0.0000000000000000e+00 -1.0946518470512729e+02 -9.7064797181462495e+01 -1.5856876894196205e+02 0 0 0
2829 81 2 0.0000000000000000e+00 -8.4595099200230436e+01 -9.0370271352417262e+01 -1.5580479257182489e+02 0 0 0
6244 179 4 0.0000000000000000e+00 -1.2289332298839291e+02 -8.3379434942202110e+01 -1.5670704180207764e+02 0 0 0
6245 179 4 0.0000000000000000e+00 -1.1716259040952369e+02 -7.5672842022785559e+01 -1.5709570450139682e+02 0 0 0
6232 179 4 0.0000000000000000e+00 -1.0201170634044162e+02 -8.6011323922703539e+01 -1.5536828466994629e+02 0 0 0
6231 179 4 0.0000000000000000e+00 -1.0020701433646551e+02 -7.6894751213540587e+01 -1.5951987270443797e+02 0 0 0
2828 81 2 0.0000000000000000e+00 -8.5545402449153158e+01 -8.2131219159615000e+01 -1.5036607090144830e+02 0 0 0
6246 179 4 0.0000000000000000e+00 -1.1062467129971347e+02 -6.7694040395319334e+01 -1.5910081564767901e+02 0 0 0
2819 81 2 0.0000000000000000e+00 -1.1341494082319223e+02 -6.2073590932823521e+01 -1.4999842599923250e+02 0 0 0
6247 179 4 0.0000000000000000e+00 -1.0447289088209055e+02 -5.9421031605353342e+01 -1.6002739908502983e+02 0 0 0
5550 159 4 0.0000000000000000e+00 -9.5926246145561464e+01 -6.7157027916977711e+01 -1.5889374208395657e+02 0 0 0
5551 159 4 0.0000000000000000e+00 -1.0050964487030802e+02 -6.1186444387474126e+01 -1.5135853089601741e+02 0 0 0
5549 159 4 0.0000000000000000e+00 -8.7083541321572682e+01 -6.3450664194320524e+01 -1.5633445287770914e+02 0 0 0
5548 159 3 0.0000000000000000e+00 -7.7662768835236804e+01 -6.3334568262289167e+01 -1.5316997270325805e+02 0 0 0
5547 159 4 0.0000000000000000e+00 -6.9520673999643321e+01 -6.8485283921029037e+01 -1.5668663176932191e+02 0 0 0
5546 159 4 0.0000000000000000e+00 -6.0716894962402506e+01 -6.4981311417185054e+01 -1.5529826916743610e+02 0 0 0
5545 159 4 0.0000000000000000e+00 -5.3111998850263646e+01 -5.8848745801077527e+01 -1.5687641283036044e+02 0 0 0
6502 186 4 0.0000000000000000e+00 -1.5661916455932266e+02 -5.1498042925441140e+01 -1.5881021081760255e+02 0 0 0
6501 186 4 0.0000000000000000e+00 -1.6202188426115438e+02 -5.3742337163460370e+01 -1.4998556080568935e+02 0 0 0
2523 73 2 0.0000000000000000e+00 -1.3305030447981918e+02 -4.5698889480032655e+01 -1.5070315977362966e+02 0 0 0
2818 81 1 0.0000000000000000e+00 -1.1386999884558256e+02 -5.4882362047232299e+01 -1.5683451067707193e+02 0 0 0
6248 179 3 0.0000000000000000e+00 -1.0485899201545880e+02 -4.9813441156933351e+01 -1.6153306110222351e+02 0 0 0
6265 179 4 0.0000000000000000e+00 -9.5271127600564668e+01 -5.2786934121957195e+01 -1.5001250968858250e+02 0 0 0
6264 179 4 0.0000000000000000e+00 -9.2129731461495041e+01 -5.0738809099935203e+01 -1.5957965376536166e+02 0 0 0
1378 40 2 0.0000000000000000e+00 -8.5637497837717206e+01 -4.5764226885183405e+01 -1.5150417702098761e+02 0 0 0
1377 40 2 0.0000000000000000e+00 -8.0777412904613698e+01 -5.3735912273104617e+01 -1.5580425409534314e+02 0 0 0
5544 159 4 0.0000000000000000e+00 -4.5446849096274590e+01 -5.2799328509920706e+01 -1.5384363348367933e+02 0 0 0
5543 159 4 0.0000000000000000e+00 -3.7387048318403870e+01 -4.5625725124596492e+01 -1.5482671697647845e+02 0 0 0
2521 73 2 0.0000000000000000e+00 -1.5225619843911460e+02 -3.8958331582328974e+01 -1.5264198566525062e+02 0 0 0
2522 73 2 0.0000000000000000e+00 -1.4312503739456852e+02 -4.3100791558197280e+01 -1.5195934422316228e+02 0 0 0
5557 159 4 0.0000000000000000e+00 -1.3987376257166321e+02 -3.4091728486686556e+01 -1.5960444952968481e+02 0 0 0
2524 73 1 0.0000000000000000e+00 -1.2522550666511113e+02 -4.0836746061371905e+01 -1.5388497888788714e+02 0 0 0
2817 81 2 0.0000000000000000e+00 -1.1378930210726139e+02 -4.4428492747486096e+01 -1.5822108504491538e+02 0 0 0
2816 81 2 0.0000000000000000e+00 -1.1844854775971677e+02 -3.5517445354484551e+01 -1.6166434367874001e+02 0 0 0
2525 73 2 0.0000000000000000e+00 -1.1646474066221805e+02 -3.7255650727650867e+01 -1.4974881242121867e+02 0 0 0
6249 179 4 0.0000000000000000e+00 -1.0215780523284610e+02 -4.0762142807904389e+01 -1.5775172071103668e+02 0 0 0
6250 179 4 0.0000000000000000e+00 -9.3730287698101591e+01 -3.6765979838943878e+01 -1.6175471416953235e+02 0 0 0
5541 159 3 0.0000000000000000e+00 -3.3689204829236729e+01 -3.2419129795603112e+01 -1.6021053627695474e+02 0 0 0
5542 159 4 0.0000000000000000e+00 -2.8623166311919192e+01 -4.1123529889860805e+01 -1.5732149148413626e+02 0 0 0
1721 50 2 0.0000000000000000e+00 -1.6314979394346344e+02 -2.8169596154022432e+01 -1.5604611565201151e+02 0 0 0
5559 159 4 0.0000000000000000e+00 -1.4637980237798911e+02 -1.9175103078084522e+01 -1.6259782350159267e+02 0 0 0
5556 159 4 0.0000000000000000e+00 -1.3367601358909673e+02 -2.9097468893518240e+01 -1.5287332773578945e+02 0 0 0
2936 84 2 0.0000000000000000e+00 -1.3774111880548514e+02 -6.0567416244131138e+00 -1.6201789099629349e+02 0 0 0
1530 44 1 0.0000000000000000e+00 -6.8948833999659797e+01 -6.1651441495922104e+00 -1.6230681913163170e+02 0 0 0
1531 44 2 0.0000000000000000e+00 -7.3542397162344471e+01 -1.2917714066222441e+01 -1.5605789946629412e+02 0 0 0
6545 187 4 0.0000000000000000e+00 -1.6195439844134535e+02 -3.7141208208995713e-01 -1.5443445658759117e+02 0 0 0
2935 84 2 0.0000000000000000e+00 -1.3364058815317577e+02 -1.4643928138494249e+00 -1.5494603515292408e+02 0 0 0
1524 44 2 0.0000000000000000e+00 -8.3269784441454107e+01 4.7555980886192746e+00 -1.5416527833617459e+02 0 0 0
1525 44 2 0.0000000000000000e+00 -8.8573582362663785e+01 8.4483212300271084e+00 -1.6199226332030480e+02 0 0 0
5533 159 4 0.0000000000000000e+00 -5.5703314413161564e+01 7.5037334799243316e-01 -1.5568586442793239e+02 0 0 0
5532 159 4 0.0000000000000000e+00 -5.2980629964824871e+01 1.0082658467029896e+01 -1.5485284243045490e+02 0 0 0
5914 169 4 0.0000000000000000e+00 -1.3896333037655117e+02 2.3422636760993516e+01 -1.5599506320111263e+02 0 0 0
5565 159 4 0.0000000000000000e+00 -1.1710962970132843e+02 1.8528493558216180e+01 -1.5610243345007822e+02 0 0 0
6180 177 4 0.0000000000000000e+00 -1.0829182404088522e+02 2.3358543376112220e+01 -1.5428655644826216e+02 0 0 0
1526 44 2 0.0000000000000000e+00 -8.0343976454545853e+01 1.4336807987053762e+01 -1.5883344316611030e+02 0 0 0
5531 159 4 0.0000000000000000e+00 -5.6442388882677626e+01 1.9148997370276540e+01 -1.5671720901108247e+02 0 0 0
4755 136 4 0.0000000000000000e+00 -4.2597527933409914e+01 2.2690969515336416e+01 -1.6005845684328261e+02 0 0 0
4750 136 3 0.0000000000000000e+00 -2.9933424761062675e+01 1.5239983835813282e+01 -1.5824000485321014e+02 0 0 0
5915 169 4 0.0000000000000000e+00 -1.4682228456897644e+02 2.5776298164222808e+01 -1.6147375506475689e+02 0 0 0
5912 169 3 0.0000000000000000e+00 -1.3194937197777020e+02 3.1197546244783570e+01 -1.6163966895224763e+02 0 0 0
5913 169 4 0.0000000000000000e+00 -1.2985817950915367e+02 2.4798378170455145e+01 -1.5327160838117004e+02 0 0 0
2496 72 1 0.0000000000000000e+00 -1.2116234601966394e+02 3.1138504128246819e+01 -1.6002073382263100e+02 0 0 0
2497 72 2 0.0000000000000000e+00 -1.2010604515690991e+02 3.2956453526179601e+01 -1.5057608657112806e+02 0 0 0
1754 51 1 0.0000000000000000e+00 -6.2434656424020261e+01 2.8404155281309723e+01 -1.4962509281421850e+02 0 0 0
1755 51 2 0.0000000000000000e+00 -6.1679066952799424e+01 3.7046326484985059e+01 -1.5385625439226257e+02 0 0 0
4756 136 4 0.0000000000000000e+00 -4.9898228822519485e+01 2.7695662507136461e+01 -1.5550234275461429e+02 0 0 0
6236 179 4 0.0000000000000000e+00 -9.1377312916032963e+01 -1.1474640983141219e+02 -1.4346000243757476e+02 0 0 0
6316 181 4 0.0000000000000000e+00 -4.4413701559352155e+01 -1.1853967946466196e+02 -1.4361549984682657e+02 0 0 0
2835 81 2 0.0000000000000000e+00 -1.2388350120597151e+02 -1.0229458304067971e+02 -1.3829703790017396e+02 0 0 0
1367 40 2 0.0000000000000000e+00 -1.1517868657502741e+02 -1.0551265346130039e+02 -1.4508148466294364e+02 0 0 0
1366 40 2 0.0000000000000000e+00 -1.0998033162510026e+02 -1.0939466412464023e+02 -1.3771382693858536e+02 0 0 0
6235 179 4 0.0000000000000000e+00 -8.9628202002197469e+01 -1.0482514097389422e+02 -1.4584218295068575e+02 0 0 0
6314 181 4 0.0000000000000000e+00 -3.0176815380993219e+01 -1.0575657292461389e+02 -1.3880481953833416e+02 0 0 0
6315 181 4 0.0000000000000000e+00 -3.7693172648816308e+01 -1.1069882762164532e+02 -1.4218351770681170e+02 0 0 0
1368 40 2 0.0000000000000000e+00 -1.1356513720134677e+02 -9.6893424838678911e+01 -1.4911483957773487e+02 0 0 0
2833 81 2 0.0000000000000000e+00 -1.1222467413142333e+02 -9.4629800358855292e+01 -1.3820513263073548e+02 0 0 0
6234 179 3 0.0000000000000000e+00 -9.6994981830516181e+01 -9.8112556768439816e+01 -1.4591538501510135e+02 0 0 0
6233 179 4 0.0000000000000000e+00 -1.0511271891866743e+02 -9.1677807432628185e+01 -1.4821751146203772e+02 0 0 0
2832 81 1 0.0000000000000000e+00 -1.0215204832163587e+02 -9.4263513919508028e+01 -1.3669198856373745e+02 0 0 0
2830 81 2 0.0000000000000000e+00 -8.6194521431086088e+01 -9.2399590327391934e+01 -1.4621461482265096e+02 0 0 0
2831 81 2 0.0000000000000000e+00 -9.2656063755466207e+01 -9.5154483367719195e+01 -1.3860649542622039e+02 0 0 0
2629 76 1 0.0000000000000000e+00 -3.2264660293774021e+01 -9.2009900879979725e+01 -1.3711948599695890e+02 0 0 0
2821 81 2 0.0000000000000000e+00 -1.0916027289596626e+02 -7.6658194063427530e+01 -1.3768445671904328e+02 0 0 0
2827 81 2 0.0000000000000000e+00 -8.1471154742753100e+01 -8.4706821243190291e+01 -1.4066618752568212e+02 0 0 0
6500 186 3 0.0000000000000000e+00 -1.6240163913937610e+02 -6.2129697004504010e+01 -1.4445926204477067e+02 0 0 0
6499 186 4 0.0000000000000000e+00 -1.5366984035887572e+02 -6.3982805272997759e+01 -1.4117490236231006e+02 0 0 0
6498 186 4 0.0000000000000000e+00 -1.4611617870787686e+02 -6.0097144335410597e+01 -1.3618726339932562e+02 0 0 0
2820 81 2 0.0000000000000000e+00 -1.1281790414123959e+02 -7.1098189637029833e+01 -1.4537409337110051e+02 0 0 0
4831 139 4 0.0000000000000000e+00 -5.8843973954270069e+01 -7.1962881869326623e+01 -1.4593728161425679e+02 0 0 0
4832 139 4 0.0000000000000000e+00 -5.8441380693462705e+01 -6.1931144700809206e+01 -1.4443645209694816e+02 0 0 0
2552 73 1 0.0000000000000000e+00 -1.5678932833696288e+02 -5.4683355496790448e+01 -1.3800202390863123e+02 0 0 0
2553 73 2 0.0000000000000000e+00 -1.4784426473017925e+02 -5.1083990759350719e+01 -1.3896175749926891e+02 0 0 0
5553 159 4 0.0000000000000000e+00 -1.1384370295487656e+02 -4.6770429933225543e+01 -1.4605147806445564e+02 0 0 0
5552 159 4 0.0000000000000000e+00 -1.0665568300534127e+02 -5.3266277856103677e+01 -1.4879422976440625e+02 0 0 0
4833 139 4 0.0000000000000000e+00 -6.0725787981558376e+01 -5.2425989812619669e+01 -1.4585179792259149e+02 0 0 0
4834 139 3 0.0000000000000000e+00 -6.1959143743554257e+01 -4.7837880295611789e+01 -1.3677287448759316e+02 0 0 0
2554 73 2 0.0000000000000000e+00 -1.4050180726418301e+02 -4.4377409349292293e+01 -1.3803516577856362e+02 0 0 0
5555 159 3 0.0000000000000000e+00 -1.2607258208702454e+02 -3.2246878721383410e+01 -1.4681602823856045e+02 0 0 0
5554 159 4 0.0000000000000000e+00 -1.2198210440388840e+02 -4.0618376795684000e+01 -1.4312324491436357e+02 0 0 0
2555 73 2 0.0000000000000000e+00 -1.3476069377481195e+02 -3.6680036026509732e+01 -1.3653956458309651e+02 0 0 0
2526 73 2 0.0000000000000000e+00 -1.0704684799243027e+02 -3.5332877758024239e+01 -1.4745120050175294e+02 0 0 0