LAMMPS data file via write_data, version 5 Jun 2019, timestep = 320000000

7000 atoms
4 atom types
7266 bonds
3 bond types
6600 angles
2 angle types

-5.0000000000000000e+02 5.0000000000000000e+02 xlo xhi
-5.0000000000000000e+02 5.0000000000000000e+02 ylo yhi
-5.0000000000000000e+02 5.0000000000000000e+02 zlo zhi

Masses

1 1000
2 1000
3 1000
4 1000

Pair Coeffs # lj/cut

1 0.178 10
2 0.178 10
3 0.178 10
4 0.178 10

Angle Coeffs # cosine

1 2
2 2

Atoms # full

6333 181 4 0.0000000000000000e+00 -1.2977358401581918e+02 -6.7960152159495451e+01 -2.3715243905214925e+02 0 0 0
6332 181 3 0.0000000000000000e+00 -1.2149839247899725e+02 -7.2047970587903251e+01 -2.3759373979370355e+02 0 0 0
6331 181 4 0.0000000000000000e+00 -1.1387882987611970e+02 -7.0569414208308814e+01 -2.3146997727011791e+02 0 0 0
6335 181 4 0.0000000000000000e+00 -1.4814890879924289e+02 -6.2096566987669398e+01 -2.3514210532230874e+02 0 0 0
6334 181 4 0.0000000000000000e+00 -1.3838633581499298e+02 -6.3839797982551019e+01 -2.3503603280133271e+02 0 0 0
2089 60 2 0.0000000000000000e+00 -1.2952740891645601e+02 -5.6615187135806885e+01 -2.3876265889542807e+02 0 0 0
2090 60 1 0.0000000000000000e+00 -1.2106195858229104e+02 -6.1031398829929664e+01 -2.3854886354732392e+02 0 0 0
2091 60 2 0.0000000000000000e+00 -1.1174578691312479e+02 -5.8081778119351831e+01 -2.3630886444975698e+02 0 0 0
2092 60 2 0.0000000000000000e+00 -1.0264500952611095e+02 -5.4637663163009101e+01 -2.3968850423491210e+02 0 0 0
2088 60 2 0.0000000000000000e+00 -1.3564026647099459e+02 -4.9386988566481264e+01 -2.3516837693920988e+02 0 0 0
2087 60 2 0.0000000000000000e+00 -1.3180664694077493e+02 -4.0639829863899230e+01 -2.3563752540683026e+02 0 0 0
2093 60 2 0.0000000000000000e+00 -9.6366966544320675e+01 -4.6506910257769157e+01 -2.3849845458924429e+02 0 0 0
2094 60 2 0.0000000000000000e+00 -8.7041185907932899e+01 -4.6130858242278904e+01 -2.3444746095968389e+02 0 0 0
2095 60 2 0.0000000000000000e+00 -7.8452192495253755e+01 -4.5216970748661161e+01 -2.2975259912950662e+02 0 0 0
2099 60 2 0.0000000000000000e+00 -4.9711474235253185e+01 -4.0567176663300337e+01 -2.3136674704142061e+02 0 0 0
2086 60 2 0.0000000000000000e+00 -1.2756074768005614e+02 -3.2543612659629588e+01 -2.3078349031328872e+02 0 0 0
2100 60 2 0.0000000000000000e+00 -4.2243599344952955e+01 -3.5237011188948955e+01 -2.3495084118059901e+02 0 0 0
2085 60 2 0.0000000000000000e+00 -1.2692746836496123e+02 -2.3037175552826046e+01 -2.3373752701360507e+02 0 0 0
6259 179 4 0.0000000000000000e+00 -1.3555568535822547e+02 -1.4674686906477517e+01 -2.2937302838639621e+02 0 0 0
6258 179 4 0.0000000000000000e+00 -1.2792302620728933e+02 -1.2324614578505006e+01 -2.3623080309580271e+02 0 0 0
6257 179 4 0.0000000000000000e+00 -1.2304986448618585e+02 -3.6830938550741386e+00 -2.3637339271834654e+02 0 0 0
6256 179 4 0.0000000000000000e+00 -1.2247990795166598e+02 3.5624544392538748e+00 -2.2921012743244449e+02 0 0 0
6324 181 4 0.0000000000000000e+00 -8.5320879623984240e+01 -9.6063900801066211e+01 -2.1913189116828588e+02 0 0 0
6329 181 4 0.0000000000000000e+00 -1.1838082111934449e+02 -8.2047669059791119e+01 -2.1654201305386007e+02 0 0 0
1366 40 2 0.0000000000000000e+00 -9.2238762571257737e+01 -8.3860319552117119e+01 -2.2043343702502648e+02 0 0 0
6323 181 4 0.0000000000000000e+00 -7.8441913449052720e+01 -8.8588855438421547e+01 -2.2004279030264442e+02 0 0 0
6330 181 4 0.0000000000000000e+00 -1.1572868310255205e+02 -7.4127497984715291e+01 -2.2221203395398413e+02 0 0 0
6322 181 4 0.0000000000000000e+00 -7.7109019137240708e+01 -7.8009737891351151e+01 -2.1892361583162563e+02 0 0 0
2096 60 2 0.0000000000000000e+00 -7.1805476413214521e+01 -4.6201040105337555e+01 -2.2269011240968052e+02 0 0 0
2097 60 1 0.0000000000000000e+00 -6.3349133178403207e+01 -4.5332957941557616e+01 -2.1904963247325404e+02 0 0 0
2098 60 2 0.0000000000000000e+00 -5.4746492615249139e+01 -4.2852302929375156e+01 -2.2323767074643465e+02 0 0 0
5439 156 4 0.0000000000000000e+00 -3.7372445430914688e+01 -3.1135593414450298e+01 -2.1551146253858940e+02 0 0 0
5440 156 4 0.0000000000000000e+00 -3.3233880607719605e+01 -3.2151246648199894e+01 -2.2426776078365603e+02 0 0 0
6260 179 4 0.0000000000000000e+00 -1.4298661833621770e+02 -1.8357264906543580e+01 -2.2371385406427780e+02 0 0 0
6261 179 4 0.0000000000000000e+00 -1.4616973801422603e+02 -1.2977624294829889e+01 -2.1577428530539436e+02 0 0 0
2084 60 2 0.0000000000000000e+00 -1.2378756320637932e+02 -1.6550063952432701e+01 -2.2706234000760870e+02 0 0 0
6254 179 4 0.0000000000000000e+00 -1.3034904144340726e+02 -1.1182025879032921e+01 -2.1892477141552033e+02 0 0 0
2083 60 1 0.0000000000000000e+00 -1.1750982545949087e+02 -1.2773728090766431e+01 -2.2042913486239536e+02 0 0 0
2809 81 2 0.0000000000000000e+00 -1.5697140109545015e+02 -9.2153136970671490e+00 -2.1575882211050808e+02 0 0 0
2808 81 2 0.0000000000000000e+00 -1.5494345035532243e+02 -2.7330083958961504e+00 -2.2351703365899226e+02 0 0 0
2806 81 2 0.0000000000000000e+00 -1.3746863213079348e+02 -3.6286259357472797e+00 -2.1814979116581887e+02 0 0 0
2807 81 2 0.0000000000000000e+00 -1.4549480937512573e+02 -4.5461978365741862e+00 -2.2373671671505323e+02 0 0 0
6255 179 3 0.0000000000000000e+00 -1.2444351170725781e+02 -3.9967131675122851e+00 -2.2234775463455097e+02 0 0 0
6510 186 4 0.0000000000000000e+00 -1.1468353916695284e+02 2.0021337912931485e+00 -2.1918630702336213e+02 0 0 0
6509 186 4 0.0000000000000000e+00 -1.1896236287481821e+02 1.0482618526961387e+01 -2.1670596828894787e+02 0 0 0
5555 159 3 0.0000000000000000e+00 -1.1179685106037734e+02 2.9064426345313194e+01 -2.1909521671912628e+02 0 0 0
5556 159 4 0.0000000000000000e+00 -1.0831887791177667e+02 3.6954811495934486e+01 -2.2348602383290844e+02 0 0 0
6327 181 4 0.0000000000000000e+00 -1.0987436994054235e+02 -9.3754914183610254e+01 -2.0523035378100332e+02 0 0 0
6326 181 4 0.0000000000000000e+00 -1.0051605841526005e+02 -9.5358525320881313e+01 -2.0837732563548505e+02 0 0 0
6325 181 3 0.0000000000000000e+00 -9.2482824543387167e+01 -9.8068178509539692e+01 -2.1320579327110335e+02 0 0 0
6317 181 4 0.0000000000000000e+00 -8.1018852669469226e+01 -1.0103585332571350e+02 -2.0199877566140970e+02 0 0 0
1615 47 2 0.0000000000000000e+00 -6.4021992967804664e+01 -9.2634136556202876e+01 -2.0097426313630024e+02 0 0 0
6328 181 4 0.0000000000000000e+00 -1.1656632173598301e+02 -8.7943295276997844e+01 -2.0921383685819220e+02 0 0 0
1367 40 2 0.0000000000000000e+00 -9.7973521627677954e+01 -8.2640309415255658e+01 -2.1272242048579608e+02 0 0 0
1368 40 2 0.0000000000000000e+00 -9.9195301062042716e+01 -8.2336873517081543e+01 -2.0271528930719515e+02 0 0 0
1616 47 2 0.0000000000000000e+00 -6.4194731187560549e+01 -8.3403069426372369e+01 -2.0516633311362273e+02 0 0 0
2820 81 2 0.0000000000000000e+00 -1.1431888682195773e+02 -6.8274671918728359e+01 -2.0283021315730451e+02 0 0 0
6320 181 4 0.0000000000000000e+00 -8.5184236531234319e+01 -7.5479798610168146e+01 -2.0203519300074257e+02 0 0 0
6321 181 4 0.0000000000000000e+00 -7.9727618107238399e+01 -7.4510965080387294e+01 -2.0979862391186549e+02 0 0 0
2819 81 2 0.0000000000000000e+00 -1.1339014085830442e+02 -5.8504176265622093e+01 -2.0527654736348910e+02 0 0 0
6250 179 4 0.0000000000000000e+00 -1.3144883984409856e+02 -4.3863058440955811e+01 -2.0507342418751912e+02 0 0 0
6249 179 4 0.0000000000000000e+00 -1.2460131422146678e+02 -5.0658485698501835e+01 -2.0167885647660870e+02 0 0 0
2818 81 1 0.0000000000000000e+00 -1.1025015639884552e+02 -5.0095033033702023e+01 -2.0233081673561486e+02 0 0 0
5436 156 3 0.0000000000000000e+00 -5.8373724862708485e+01 -4.3301390020513146e+01 -2.0951741013938795e+02 0 0 0
5435 156 4 0.0000000000000000e+00 -6.5543423619538828e+01 -4.2647399231613690e+01 -2.0272123497633882e+02 0 0 0
5437 156 4 0.0000000000000000e+00 -5.0041631415488901e+01 -3.8015268992907593e+01 -2.0877506285410840e+02 0 0 0
4727 136 4 0.0000000000000000e+00 -3.3880283368660386e+01 -4.5821337109505357e+01 -2.0176342014719373e+02 0 0 0
6252 179 4 0.0000000000000000e+00 -1.3082850186684161e+02 -2.5169345588466218e+01 -2.0948062204620126e+02 0 0 0
6251 179 4 0.0000000000000000e+00 -1.3358773404699230e+02 -3.4818299786773508e+01 -2.0805510689992099e+02 0 0 0
5434 156 4 0.0000000000000000e+00 -5.7539596835535846e+01 -3.6625955842681691e+01 -2.0180104876436633e+02 0 0 0
5438 156 4 0.0000000000000000e+00 -4.6161808692924623e+01 -3.0066636571718647e+01 -2.1356191414490394e+02 0 0 0
6253 179 4 0.0000000000000000e+00 -1.2678068576794016e+02 -1.5954988528404810e+01 -2.1159619751649967e+02 0 0 0
2082 60 2 0.0000000000000000e+00 -1.1207909573299659e+02 -1.3914069013895844e+01 -2.1150337679486910e+02 0 0 0
2810 81 2 0.0000000000000000e+00 -1.5554639533039790e+02 -8.4890551505692766e+00 -2.0644793606484805e+02 0 0 0
6262 179 3 0.0000000000000000e+00 -1.4261128718360794e+02 -8.9182860133758961e+00 -2.0763227298009355e+02 0 0 0
2805 81 2 0.0000000000000000e+00 -1.3234102000644947e+02 -1.6772218060105211e+00 -2.0955197144270545e+02 0 0 0
2804 81 1 0.0000000000000000e+00 -1.3065545003816990e+02 1.5219401661612009e+00 -2.0062299567442517e+02 0 0 0
2081 60 2 0.0000000000000000e+00 -1.0611135159727309e+02 -9.0386213205998782e+00 -2.0476047592422412e+02 0 0 0
6507 186 3 0.0000000000000000e+00 -1.3134807271931658e+02 1.3025920879142507e+01 -2.0215980510917950e+02 0 0 0
6508 186 4 0.0000000000000000e+00 -1.2783279826182448e+02 1.0739449252384592e+01 -2.1159046753093247e+02 0 0 0
5553 159 4 0.0000000000000000e+00 -1.1115919190197651e+02 1.2869069224859695e+01 -2.0752490086429435e+02 0 0 0
5552 159 4 0.0000000000000000e+00 -1.0943895389876239e+02 4.7718741788897852e+00 -2.0123872526301255e+02 0 0 0
5554 159 4 0.0000000000000000e+00 -1.1366957225539275e+02 2.0510643591839855e+01 -2.1383627678617867e+02 0 0 0
5557 159 4 0.0000000000000000e+00 -1.0373472054687588e+02 3.6990284853063137e+01 -2.1402132026731499e+02 0 0 0
5558 159 4 0.0000000000000000e+00 -9.9580024095479146e+01 3.9955626471851083e+01 -2.0554418626819557e+02 0 0 0
6313 181 4 0.0000000000000000e+00 -9.7498738261663902e+01 -1.2181171698804897e+02 -1.9628266637806857e+02 0 0 0
6314 181 4 0.0000000000000000e+00 -8.8020500668707584e+01 -1.2240915032659744e+02 -1.9871190775789387e+02 0 0 0
6315 181 4 0.0000000000000000e+00 -7.8359379870895353e+01 -1.2056471440391682e+02 -1.9995751347288308e+02 0 0 0
6312 181 4 0.0000000000000000e+00 -9.9840849351485090e+01 -1.1215506850510955e+02 -1.9880425681475833e+02 0 0 0
6316 181 4 0.0000000000000000e+00 -7.8702204212129843e+01 -1.1074333115781283e+02 -2.0034963517084785e+02 0 0 0
6311 181 3 0.0000000000000000e+00 -1.0092576312113958e+02 -1.0530546907733161e+02 -1.9208066839411430e+02 0 0 0
6318 181 3 0.0000000000000000e+00 -8.3679164272325011e+01 -9.3528296457094669e+01 -1.9517378973690413e+02 0 0 0
6242 179 4 0.0000000000000000e+00 -1.1586757144255404e+02 -8.3335604804716723e+01 -1.9160010814311752e+02 0 0 0
6319 181 4 0.0000000000000000e+00 -8.6139783483403718e+01 -8.3675160533694324e+01 -1.9617656488991514e+02 0 0 0
1614 47 1 0.0000000000000000e+00 -7.2529056533787156e+01 -9.0270420153441719e+01 -1.9616298561563457e+02 0 0 0
1613 47 2 0.0000000000000000e+00 -7.5551193501578055e+01 -8.5155178399984223e+01 -1.8739982448513013e+02 0 0 0
2821 81 2 0.0000000000000000e+00 -1.2017316236991205e+02 -7.5019615772976806e+01 -1.9871349233271243e+02 0 0 0
2822 81 2 0.0000000000000000e+00 -1.1734372326176111e+02 -6.9531590286646662e+01 -1.9140418188938361e+02 0 0 0
1369 40 1 0.0000000000000000e+00 -9.6690988281903955e+01 -7.6204276284449179e+01 -1.9614889893329300e+02 0 0 0
6241 179 3 0.0000000000000000e+00 -1.0814022587529182e+02 -7.7272044052322357e+01 -1.9397206266482809e+02 0 0 0
6240 179 4 0.0000000000000000e+00 -1.0402418085037665e+02 -6.8830258520823676e+01 -1.9688481664399356e+02 0 0 0
1370 40 2 0.0000000000000000e+00 -9.9453993434738436e+01 -7.2501613503113987e+01 -1.8745671658183409e+02 0 0 0
1371 40 2 0.0000000000000000e+00 -1.0741790273827287e+02 -6.5509805653056802e+01 -1.8719782716718925e+02 0 0 0
6301 181 4 0.0000000000000000e+00 -8.6466382997842516e+01 -6.5353341300949879e+01 -1.8941570042215065e+02 0 0 0
1617 47 2 0.0000000000000000e+00 -6.6494646365034484e+01 -7.5228708543741803e+01 -2.0002973990219692e+02 0 0 0
1618 47 2 0.0000000000000000e+00 -6.1634182376518297e+01 -7.7138336895811619e+01 -1.9209533348321119e+02 0 0 0
6247 179 4 0.0000000000000000e+00 -1.2427468652906796e+02 -6.0841757402736484e+01 -1.9196288932665968e+02 0 0 0
6248 179 3 0.0000000000000000e+00 -1.1737435573447927e+02 -5.3670450770230588e+01 -1.9466182621613765e+02 0 0 0
6239 179 4 0.0000000000000000e+00 -9.5943020363087442e+01 -6.3457144326411544e+01 -1.9721239614681522e+02 0 0 0
6238 179 4 0.0000000000000000e+00 -9.2496877389046873e+01 -5.5533280411765233e+01 -1.9241270201612886e+02 0 0 0
2548 73 2 0.0000000000000000e+00 -1.4292777313305271e+02 -4.9224334138867029e+01 -1.8893874737977495e+02 0 0 0
2549 73 2 0.0000000000000000e+00 -1.3395841257495198e+02 -4.3812319370659260e+01 -1.8731387741236139e+02 0 0 0
2817 81 2 0.0000000000000000e+00 -1.1374888639289873e+02 -4.1510912660303198e+01 -1.9964987325472660e+02 0 0 0
1374 40 2 0.0000000000000000e+00 -1.1098010645508379e+02 -4.1134006588659368e+01 -1.8842439881584374e+02 0 0 0
6237 179 4 0.0000000000000000e+00 -9.4577073017641425e+01 -4.6472798227197238e+01 -1.8840369532298456e+02 0 0 0
4726 136 4 0.0000000000000000e+00 -4.1137191491758365e+01 -4.9488083379908701e+01 -1.9587080903150928e+02 0 0 0
2814 81 2 0.0000000000000000e+00 -1.2937141491917478e+02 -3.0094919738976760e+01 -1.8984912309065706e+02 0 0 0
2813 81 2 0.0000000000000000e+00 -1.3530293828380943e+02 -2.5172048926848529e+01 -1.9648672604277897e+02 0 0 0
2816 81 2 0.0000000000000000e+00 -1.1860566699432043e+02 -3.2755122730076067e+01 -1.9751749488567197e+02 0 0 0
2815 81 2 0.0000000000000000e+00 -1.2101527610612301e+02 -3.4838337503598211e+01 -1.8833990354131899e+02 0 0 0
1375 40 2 0.0000000000000000e+00 -1.0802128521124729e+02 -3.1733581105463266e+01 -1.8692936020288778e+02 0 0 0
5433 156 4 0.0000000000000000e+00 -4.9477397453803668e+01 -3.6611099876206922e+01 -1.9559172582750281e+02 0 0 0
2811 81 1 0.0000000000000000e+00 -1.4881492872531820e+02 -1.0891577977675629e+01 -1.9899053075251840e+02 0 0 0
2812 81 2 0.0000000000000000e+00 -1.4150223943731041e+02 -1.7690597279353817e+01 -1.9721235235526967e+02 0 0 0
2079 60 2 0.0000000000000000e+00 -9.0079813223531161e+01 -1.2145655764771918e+01 -1.9899730304533102e+02 0 0 0
2078 60 2 0.0000000000000000e+00 -8.7115020338692560e+01 -1.9989570801118809e+01 -1.9366961213825442e+02 0 0 0
6263 179 4 0.0000000000000000e+00 -1.4045642292513858e+02 -3.4959284478930606e+00 -1.9947358867853833e+02 0 0 0
2803 81 2 0.0000000000000000e+00 -1.2258023972831883e+02 2.4792529589722436e+00 -1.9545572672854590e+02 0 0 0
2080 60 2 0.0000000000000000e+00 -9.7398507799163553e+01 -6.2075066480637817e+00 -1.9965105463803013e+02 0 0 0
5550 159 4 0.0000000000000000e+00 -9.8129393369894146e+01 -4.6784651260559000e+00 -1.8837948149418835e+02 0 0 0
5551 159 4 0.0000000000000000e+00 -1.0571637182835663e+02 -1.1763754316156501e+00 -1.9424675075338089e+02 0 0 0
6265 179 4 0.0000000000000000e+00 -1.4490724831981936e+02 2.9933451966525890e+00 -1.8823854939201996e+02 0 0 0
6264 179 4 0.0000000000000000e+00 -1.3696244921848049e+02 4.1175776499922137e+00 -1.9375820141149708e+02 0 0 0
6506 186 4 0.0000000000000000e+00 -1.3847114042165117e+02 1.4444918107192523e+01 -1.9477559094714024e+02 0 0 0
2802 81 2 0.0000000000000000e+00 -1.1756495297984104e+02 1.0765808869076601e+01 -1.9458161652287021e+02 0 0 0
2066 60 2 0.0000000000000000e+00 -8.5304527375501678e+01 1.5704641818075720e+01 -1.9762434287181890e+02 0 0 0
2067 60 2 0.0000000000000000e+00 -8.2392830671599896e+01 1.2069099893820098e+01 -1.8838439501986667e+02 0 0 0
2930 84 1 0.0000000000000000e+00 -1.3464410582752572e+02 2.5514724244465903e+01 -1.9476948599133536e+02 0 0 0
2931 84 2 0.0000000000000000e+00 -1.2605128494106592e+02 2.9518571030103082e+01 -1.9840161234012555e+02 0 0 0
2801 81 2 0.0000000000000000e+00 -1.1040607322677208e+02 1.8746794994157359e+01 -1.9398990242629449e+02 0 0 0
2933 84 2 0.0000000000000000e+00 -1.1159787641719181e+02 4.3101314424923764e+01 -1.9840777476510542e+02 0 0 0
2932 84 2 0.0000000000000000e+00 -1.1808244202347286e+02 3.5840159480157979e+01 -1.9639173462312149e+02 0 0 0
5559 159 4 0.0000000000000000e+00 -9.1613155693638163e+01 4.1275904748577595e+01 -1.9911441012974626e+02 0 0 0
6309 181 4 0.0000000000000000e+00 -1.0688261833437009e+02 -1.0042182318276201e+02 -1.7426170909376347e+02 0 0 0
6310 181 4 0.0000000000000000e+00 -1.0261637494392795e+02 -9.9849263506690065e+01 -1.8292029353737163e+02 0 0 0
6243 179 4 0.0000000000000000e+00 -1.1797510351442330e+02 -8.1985337594490773e+01 -1.8138194368546129e+02 0 0 0
2827 81 2 0.0000000000000000e+00 -9.7541693236938272e+01 -8.6554894875764489e+01 -1.8041420252124067e+02 0 0 0
2826 81 2 0.0000000000000000e+00 -1.0669117685988718e+02 -8.5690049598417815e+01 -1.7668034102984964e+02 0 0 0
2828 81 2 0.0000000000000000e+00 -8.7809888367900811e+01 -8.8445934156854818e+01 -1.8009619306742900e+02 0 0 0
2829 81 2 0.0000000000000000e+00 -8.8886355670185154e+01 -7.9002444586008266e+01 -1.7568921990066121e+02 0 0 0
1612 47 2 0.0000000000000000e+00 -8.2700081250337973e+01 -7.9558087129142947e+01 -1.8335245312219595e+02 0 0 0
6246 179 4 0.0000000000000000e+00 -1.2590751723826277e+02 -6.5221062022727509e+01 -1.8304197199808578e+02 0 0 0
6245 179 4 0.0000000000000000e+00 -1.2348454407370157e+02 -7.1416668640004062e+01 -1.7558786851655955e+02 0 0 0
2823 81 2 0.0000000000000000e+00 -1.1485947732480426e+02 -6.8312163089010198e+01 -1.8153166649205923e+02 0 0 0
2824 81 2 0.0000000000000000e+00 -1.0802504750116600e+02 -7.0108750049973267e+01 -1.7510281551979293e+02 0 0 0
2830 81 2 0.0000000000000000e+00 -8.6275478880714729e+01 -6.9885549628077229e+01 -1.7412034757319265e+02 0 0 0
6302 181 4 0.0000000000000000e+00 -9.3701713364310081e+01 -6.7924188435909372e+01 -1.8187056992163511e+02 0 0 0
1611 47 2 0.0000000000000000e+00 -8.0109466984119621e+01 -6.9540349160777495e+01 -1.8288355599922656e+02 0 0 0
1619 47 2 0.0000000000000000e+00 -5.3522456237300517e+01 -7.5906614645250343e+01 -1.8668148406498216e+02 0 0 0
1620 47 2 0.0000000000000000e+00 -4.9341486675448486e+01 -7.2329251131446824e+01 -1.7873946854626649e+02 0 0 0
2547 73 2 0.0000000000000000e+00 -1.4389986205572237e+02 -5.5679177070318680e+01 -1.8107111993484418e+02 0 0 0
1372 40 2 0.0000000000000000e+00 -1.1349063054152008e+02 -5.9159981659546709e+01 -1.8261081161451551e+02 0 0 0
2831 81 2 0.0000000000000000e+00 -8.1732857959466628e+01 -6.0888539293994249e+01 -1.7428533423555459e+02 0 0 0
1373 40 2 0.0000000000000000e+00 -1.1367529595221258e+02 -4.9416949816261877e+01 -1.8417447995345353e+02 0 0 0
6236 179 4 0.0000000000000000e+00 -8.6476470778806600e+01 -4.4002698830225356e+01 -1.8351666581944104e+02 0 0 0
6235 179 4 0.0000000000000000e+00 -8.7356492537509382e+01 -4.8042045446226680e+01 -1.7443036850401361e+02 0 0 0
5431 156 4 0.0000000000000000e+00 -4.8029652013206274e+01 -4.3646618065356051e+01 -1.7812333388263781e+02 0 0 0
5432 156 4 0.0000000000000000e+00 -4.7432801135809058e+01 -3.9004956363130539e+01 -1.8650970760990160e+02 0 0 0
4731 136 4 0.0000000000000000e+00 -2.9294229771380092e+01 -4.2230933193695989e+01 -1.7665848062185037e+02 0 0 0
2550 73 2 0.0000000000000000e+00 -1.2792416766519069e+02 -3.7811952170483714e+01 -1.8232318518485278e+02 0 0 0
2551 73 2 0.0000000000000000e+00 -1.2600853645939252e+02 -3.0744256753594509e+01 -1.7566778870576235e+02 0 0 0
1376 40 1 0.0000000000000000e+00 -1.0094959567259922e+02 -2.6832661748651436e+01 -1.8150585547027976e+02 0 0 0
1377 40 2 0.0000000000000000e+00 -9.3989919254861547e+01 -2.5503607799175587e+01 -1.7460131618685253e+02 0 0 0
2076 60 1 0.0000000000000000e+00 -8.5150379668009577e+01 -3.0482562734340643e+01 -1.7724899179764307e+02 0 0 0
5548 159 3 0.0000000000000000e+00 -1.0099111761888337e+02 -1.8125873219964586e+01 -1.7461587428846349e+02 0 0 0
2077 60 2 0.0000000000000000e+00 -8.4183726311033098e+01 -2.3542375685420087e+01 -1.8473107670373162e+02 0 0 0
4741 136 4 0.0000000000000000e+00 -5.2273884605172071e+01 -1.3462095261540695e+01 -1.8038078467309541e+02 0 0 0
4740 136 4 0.0000000000000000e+00 -4.3251471892608244e+01 -1.3727839262866679e+01 -1.7649439413010157e+02 0 0 0
5549 159 4 0.0000000000000000e+00 -9.6748830277007826e+01 -1.0208938439440015e+01 -1.7993843609102453e+02 0 0 0
2069 60 1 0.0000000000000000e+00 -7.1917357858741525e+01 2.1070000277282221e+00 -1.8012594859130243e+02 0 0 0
2071 60 2 0.0000000000000000e+00 -7.9313819540127071e+01 -4.5110416428040496e+00 -1.7568727936056032e+02 0 0 0
4742 136 4 0.0000000000000000e+00 -6.2469438843625319e+01 -1.0832198540381967e+01 -1.7983914659237703e+02 0 0 0
6505 186 4 0.0000000000000000e+00 -1.3415291230835663e+02 1.1842038228577188e+01 -1.8642151911149611e+02 0 0 0
6504 186 4 0.0000000000000000e+00 -1.2440856079179036e+02 8.6862533689254509e+00 -1.8466152142407236e+02 0 0 0
6503 186 4 0.0000000000000000e+00 -1.2648187837830203e+02 3.7441883320491303e+00 -1.7626538742284049e+02 0 0 0
6539 187 4 0.0000000000000000e+00 -1.1023035783204686e+02 1.1558042627420553e+01 -1.7649966090886571e+02 0 0 0
2070 60 2 0.0000000000000000e+00 -8.1267407404348532e+01 3.7061758019555393e+00 -1.8110935972907322e+02 0 0 0
2068 60 2 0.0000000000000000e+00 -7.4688056794248553e+01 1.1592625736783113e+01 -1.8179863063997459e+02 0 0 0
6183 177 4 0.0000000000000000e+00 -1.9268118611603958e+02 2.6915067968060033e+01 -1.7526154275443565e+02 0 0 0
2928 84 2 0.0000000000000000e+00 -1.3962306881854516e+02 1.6670147756178796e+01 -1.7773197591426501e+02 0 0 0
2929 84 2 0.0000000000000000e+00 -1.3682138719812656e+02 2.1452608025520746e+01 -1.8591391663155645e+02 0 0 0
6540 187 4 0.0000000000000000e+00 -1.1665868233058396e+02 1.8738461603537075e+01 -1.7896660404175469e+02 0 0 0
6541 187 4 0.0000000000000000e+00 -1.2261789279894721e+02 2.2402004154880693e+01 -1.8550899228193680e+02 0 0 0
5565 159 4 0.0000000000000000e+00 -1.0493361903253060e+02 2.5719523584815505e+01 -1.7540638994959295e+02 0 0 0
1642 47 1 0.0000000000000000e+00 -4.9261015046258557e+01 2.9531333739953659e+01 -1.7383849172042355e+02 0 0 0
1643 47 2 0.0000000000000000e+00 -4.7753483181253912e+01 2.0840774609325397e+01 -1.7738579649623438e+02 0 0 0
1644 47 2 0.0000000000000000e+00 -3.9728571259231039e+01 2.5856987163836468e+01 -1.8079060706479777e+02 0 0 0
6184 177 4 0.0000000000000000e+00 -1.9622854946029292e+02 3.3686390527637229e+01 -1.8281824585819140e+02 0 0 0
6185 177 3 0.0000000000000000e+00 -1.9830127976116486e+02 4.2488170505356479e+01 -1.8667874612173640e+02 0 0 0
6543 187 4 0.0000000000000000e+00 -1.2975441723393152e+02 4.0176645303489785e+01 -1.8658682887992128e+02 0 0 0
6542 187 3 0.0000000000000000e+00 -1.2924651284840891e+02 3.0317458645870502e+01 -1.8603360419198074e+02 0 0 0
5563 159 4 0.0000000000000000e+00 -1.1158284614377733e+02 4.3121825118948053e+01 -1.7448609806357959e+02 0 0 0
4749 136 4 0.0000000000000000e+00 -5.8941214541395333e+01 3.2063229834943435e+01 -1.7826529351887055e+02 0 0 0
6511 187 4 0.0000000000000000e+00 -6.8613017554814121e+01 4.1083196803102275e+01 -1.7772104477040651e+02 0 0 0
4751 136 4 0.0000000000000000e+00 -5.0743183866364610e+01 4.2031551796346598e+01 -1.8491148718230519e+02 0 0 0
4750 136 3 0.0000000000000000e+00 -5.1529773816079512e+01 3.2521131448250252e+01 -1.8492188477198135e+02 0 0 0
1645 47 2 0.0000000000000000e+00 -4.1885281228130523e+01 3.5222154313802342e+01 -1.7930589744116742e+02 0 0 0
6308 181 4 0.0000000000000000e+00 -1.0591791083641556e+02 -1.0101513155948830e+02 -1.6393840375033690e+02 0 0 0
6244 179 4 0.0000000000000000e+00 -1.1918657667358769e+02 -7.9098300676304632e+01 -1.7209772574648727e+02 0 0 0
6305 181 4 0.0000000000000000e+00 -9.7852590663839507e+01 -8.1507837142617589e+01 -1.6127666096580666e+02 0 0 0
6492 186 4 0.0000000000000000e+00 -1.4377574472073096e+02 -7.5732490737539848e+01 -1.6187175617554496e+02 0 0 0
6494 186 4 0.0000000000000000e+00 -1.2638763248396181e+02 -6.6346981030493438e+01 -1.5977432241888678e+02 0 0 0
6493 186 3 0.0000000000000000e+00 -1.3566848174563208e+02 -7.1294100436846719e+01 -1.6022830022720433e+02 0 0 0
6303 181 4 0.0000000000000000e+00 -9.7869800926923617e+01 -6.9165916598590840e+01 -1.7283328856237409e+02 0 0 0
2825 81 1 0.0000000000000000e+00 -1.0858769937871014e+02 -7.8621069520138704e+01 -1.7009724859463387e+02 0 0 0
6304 181 3 0.0000000000000000e+00 -1.0069270435531223e+02 -7.2974024756165676e+01 -1.6414446691341695e+02 0 0 0
1621 47 1 0.0000000000000000e+00 -4.9279099990100001e+01 -6.9189377537716723e+01 -1.6848611749124882e+02 0 0 0
1622 47 2 0.0000000000000000e+00 -4.1168354564104106e+01 -6.5410824879474205e+01 -1.6490171559591278e+02 0 0 0
6476 186 4 0.0000000000000000e+00 -2.1974961836917194e+02 -5.6224095671791979e+01 -1.7161034130339792e+02 0 0 0
6477 186 4 0.0000000000000000e+00 -2.1022972733221914e+02 -5.4651548025176595e+01 -1.6798912929352298e+02 0 0 0
6478 186 4 0.0000000000000000e+00 -2.0447691463650335e+02 -5.5602072528992828e+01 -1.5983586216523000e+02 0 0 0
6486 186 3 0.0000000000000000e+00 -1.5372699525967533e+02 -5.7969478760785535e+01 -1.6194875204661793e+02 0 0 0
2546 73 2 0.0000000000000000e+00 -1.4563425986012004e+02 -5.4367763264515517e+01 -1.7082813478547084e+02 0 0 0
2545 73 1 0.0000000000000000e+00 -1.4400280866430026e+02 -5.2892591239325952e+01 -1.6081158080900147e+02 0 0 0
6495 186 4 0.0000000000000000e+00 -1.1659021167305475e+02 -6.5181757656439146e+01 -1.6016634736575301e+02 0 0 0
6496 186 4 0.0000000000000000e+00 -1.1462636480408206e+02 -5.6390125365623199e+01 -1.6373454619101830e+02 0 0 0
2832 81 1 0.0000000000000000e+00 -8.0523973987959295e+01 -6.1256024567547442e+01 -1.6399475375792744e+02 0 0 0
5428 156 4 0.0000000000000000e+00 -5.6615382198778370e+01 -6.2904802151435526e+01 -1.6207735599127980e+02 0 0 0
5429 156 3 0.0000000000000000e+00 -4.8626770511772712e+01 -5.8234293216629958e+01 -1.6610918699580429e+02 0 0 0
6485 186 4 0.0000000000000000e+00 -1.5904517735735456e+02 -4.9762006296430535e+01 -1.6170789825452019e+02 0 0 0
6497 186 4 0.0000000000000000e+00 -1.1455920596122587e+02 -4.6829441592931154e+01 -1.6257110881604743e+02 0 0 0
5543 159 4 0.0000000000000000e+00 -1.0353573842159697e+02 -3.8784454354391322e+01 -1.7148324348899877e+02 0 0 0
5544 159 4 0.0000000000000000e+00 -1.0624192338477847e+02 -3.9784416268254787e+01 -1.6206510848067714e+02 0 0 0
6234 179 3 0.0000000000000000e+00 -8.6663212983909972e+01 -5.1122693737800688e+01 -1.6487557042552677e+02 0 0 0
6233 179 4 0.0000000000000000e+00 -7.6784309852736229e+01 -5.1236839237848613e+01 -1.6385375027396560e+02 0 0 0
6232 179 4 0.0000000000000000e+00 -6.7691856349803231e+01 -4.8254428995400112e+01 -1.6006073815213003e+02 0 0 0
5430 156 4 0.0000000000000000e+00 -4.7944809710051267e+01 -4.8541438146087721e+01 -1.6924647059545515e+02 0 0 0
2552 73 1 0.0000000000000000e+00 -1.2974095105952995e+02 -2.5455103765591964e+01 -1.6762172742974406e+02 0 0 0
6498 186 4 0.0000000000000000e+00 -1.1580828829839989e+02 -3.7824549831165726e+01 -1.6649431555278818e+02 0 0 0
6499 186 4 0.0000000000000000e+00 -1.1512637573724189e+02 -2.8761654737408762e+01 -1.7021305759604678e+02 0 0 0
5542 159 4 0.0000000000000000e+00 -9.3999696254697454e+01 -3.7374253794436221e+01 -1.6885274811252467e+02 0 0 0
5541 159 3 0.0000000000000000e+00 -8.4987283088022423e+01 -3.4633531176711180e+01 -1.6675565323852732e+02 0 0 0
1378 40 2 0.0000000000000000e+00 -9.0973147617335087e+01 -2.7006436693068931e+01 -1.6541507827250939e+02 0 0 0
2075 60 2 0.0000000000000000e+00 -7.9460482308646988e+01 -2.6963835307310529e+01 -1.6958678520077626e+02 0 0 0
6501 186 4 0.0000000000000000e+00 -1.2774182620653652e+02 -1.2691448857117811e+01 -1.6792352566802188e+02 0 0 0
2553 73 2 0.0000000000000000e+00 -1.3307474548820272e+02 -1.8479936223718681e+01 -1.6203422731218978e+02 0 0 0
6500 186 3 0.0000000000000000e+00 -1.2022706786310970e+02 -1.9145020941718862e+01 -1.6858584014968702e+02 0 0 0
5547 159 4 0.0000000000000000e+00 -1.0292060328837896e+02 -2.1795732671645862e+01 -1.6617074505476182e+02 0 0 0
2074 60 2 0.0000000000000000e+00 -7.0879480072392496e+01 -2.2426353861377113e+01 -1.6567213664053068e+02 0 0 0
2073 60 2 0.0000000000000000e+00 -7.1231289110146335e+01 -1.3650506293141675e+01 -1.6088864473738337e+02 0 0 0
4739 136 4 0.0000000000000000e+00 -3.4418148896346779e+01 -1.5676015631603427e+01 -1.7178644900526697e+02 0 0 0
6502 186 4 0.0000000000000000e+00 -1.2693326237853249e+02 -2.8135528704588650e+00 -1.6890835861270824e+02 0 0 0
2072 60 2 0.0000000000000000e+00 -7.6831881640984889e+01 -8.9001349113549395e+00 -1.6772511462970286e+02 0 0 0
4744 136 4 0.0000000000000000e+00 -6.9641483477392981e+01 2.0643678044179770e+00 -1.6682521851711186e+02 0 0 0
4743 136 3 0.0000000000000000e+00 -6.7025076676175701e+01 -5.4385295409270995e+00 -1.7301744864122526e+02 0 0 0
2927 84 2 0.0000000000000000e+00 -1.3725957801787692e+02 8.2484072134880151e+00 -1.7219714668869736e+02 0 0 0
2926 84 2 0.0000000000000000e+00 -1.4240018376685245e+02 1.4748062679455666e+01 -1.6661571347661553e+02 0 0 0
6537 187 4 0.0000000000000000e+00 -1.2035417838034779e+02 3.4445724841634644e+00 -1.6244877390833776e+02 0 0 0
6538 187 4 0.0000000000000000e+00 -1.1428624954098198e+02 4.7893876524152956e+00 -1.6972920843239766e+02 0 0 0
4745 136 4 0.0000000000000000e+00 -6.3453208281859645e+01 1.0231690291353337e+01 -1.6590655589154389e+02 0 0 0
2925 84 2 0.0000000000000000e+00 -1.4739934894883706e+02 2.1980567254293117e+01 -1.6248653401367136e+02 0 0 0
6516 187 4 0.0000000000000000e+00 -1.0328349453817120e+02 2.6419819977743085e+01 -1.6499985463296051e+02 0 0 0
4747 136 4 0.0000000000000000e+00 -6.1029125506090452e+01 2.6254024065924209e+01 -1.6187467302788119e+02 0 0 0
6182 177 4 0.0000000000000000e+00 -1.8918956126579954e+02 3.1987217816987766e+01 -1.6761689029269530e+02 0 0 0
6181 177 4 0.0000000000000000e+00 -1.8015541820743644e+02 3.6317554226493705e+01 -1.6787873255208848e+02 0 0 0