LAMMPS data file via write_data, version 5 Jun 2019, timestep = 380000000

7000 atoms
4 atom types
7253 bonds
3 bond types
6600 angles
2 angle types

-5.0000000000000000e+02 5.0000000000000000e+02 xlo xhi
-5.0000000000000000e+02 5.0000000000000000e+02 ylo yhi
-5.0000000000000000e+02 5.0000000000000000e+02 zlo zhi

Masses

1 1000
2 1000
3 1000
4 1000

Pair Coeffs # lj/cut

1 0.178 10
2 0.178 10
3 0.178 10
4 0.178 10

Angle Coeffs # cosine

1 2
2 2

Atoms # full

6232 179 4 0.0000000000000000e+00 -1.3600948320338796e+02 -1.2304531233123960e+02 -2.9906521150738661e+02 0 0 0
6231 179 4 0.0000000000000000e+00 -1.3264814750914400e+02 -1.1427214411276081e+02 -3.0284697030535722e+02 0 0 0
6233 179 4 0.0000000000000000e+00 -1.3769342327306416e+02 -1.2699919768137903e+02 -2.9016157815099763e+02 0 0 0
6234 179 3 0.0000000000000000e+00 -1.3853045046421025e+02 -1.2668076580605960e+02 -2.7979732415292369e+02 0 0 0
2834 81 2 0.0000000000000000e+00 -1.1361899669492685e+02 -1.6558992774712220e+02 -2.6329827107346682e+02 0 0 0
2835 81 2 0.0000000000000000e+00 -1.1113357966219617e+02 -1.7323244744676927e+02 -2.5811877723925295e+02 0 0 0
2827 81 2 0.0000000000000000e+00 -9.7103112039247037e+01 -1.6045977908896108e+02 -2.6127674350899895e+02 0 0 0
2833 81 2 0.0000000000000000e+00 -1.1291553100162648e+02 -1.5576172688388951e+02 -2.6654071908556870e+02 0 0 0
2832 81 1 0.0000000000000000e+00 -1.0565664185284672e+02 -1.4873494920155454e+02 -2.6700321915232843e+02 0 0 0
2829 81 2 0.0000000000000000e+00 -8.0236998703177292e+01 -1.5299873741969901e+02 -2.6666388780317101e+02 0 0 0
2828 81 2 0.0000000000000000e+00 -8.8066409667459013e+01 -1.5753509436918804e+02 -2.6314831810669790e+02 0 0 0
2830 81 2 0.0000000000000000e+00 -8.7754531590981841e+01 -1.4805646664746052e+02 -2.7014283137704410e+02 0 0 0
2831 81 2 0.0000000000000000e+00 -9.7161101395612519e+01 -1.4419871598906929e+02 -2.6937965066721347e+02 0 0 0
6235 179 4 0.0000000000000000e+00 -1.3676218872032686e+02 -1.2539131828625599e+02 -2.7033944582761546e+02 0 0 0
6236 179 4 0.0000000000000000e+00 -1.3079530296088467e+02 -1.2551567910930493e+02 -2.6196422570415746e+02 0 0 0
3012 87 2 0.0000000000000000e+00 -8.1012360671799883e+01 -7.4408656243169617e+01 -2.5853305467845996e+02 0 0 0
6335 181 4 0.0000000000000000e+00 -7.4855700895514730e+01 -7.6224693036283043e+01 -2.6871596890534005e+02 0 0 0
6334 181 4 0.0000000000000000e+00 -6.9231532605895396e+01 -7.0603415345845605e+01 -2.6164300147707615e+02 0 0 0
2826 81 2 0.0000000000000000e+00 -1.0355340150852899e+02 -1.5390402265630536e+02 -2.5709763685874520e+02 0 0 0
2825 81 1 0.0000000000000000e+00 -1.0871771651918320e+02 -1.4577141247606698e+02 -2.5633482356472132e+02 0 0 0
2824 81 2 0.0000000000000000e+00 -1.1396968836569414e+02 -1.4063483157015858e+02 -2.4969283601550353e+02 0 0 0
6237 179 4 0.0000000000000000e+00 -1.2602868915791389e+02 -1.1939425002879581e+02 -2.5401003459500325e+02 0 0 0
6238 179 4 0.0000000000000000e+00 -1.2512076435618556e+02 -1.1254118752475372e+02 -2.4720224609811837e+02 0 0 0
3011 87 2 0.0000000000000000e+00 -7.7534617608134766e+01 -8.3515709814779285e+01 -2.5543068787532084e+02 0 0 0
3013 87 2 0.0000000000000000e+00 -7.5879010309177460e+01 -6.7748449247492957e+01 -2.5223486253612703e+02 0 0 0
6332 181 3 0.0000000000000000e+00 -6.7379140986324757e+01 -6.7794418199417990e+01 -2.4686837118719720e+02 0 0 0
6333 181 4 0.0000000000000000e+00 -6.2581224041906033e+01 -6.7208964516941762e+01 -2.5579491951436415e+02 0 0 0
3014 87 1 0.0000000000000000e+00 -7.4126158147415310e+01 -5.9022682378315558e+01 -2.4778956986378782e+02 0 0 0
5886 169 4 0.0000000000000000e+00 -1.2392514758737266e+02 1.5193445053399074e+01 -2.4685797783175198e+02 0 0 0
5885 169 4 0.0000000000000000e+00 -1.3343966818982577e+02 1.7729197652432305e+01 -2.4790417602759973e+02 0 0 0
2823 81 2 0.0000000000000000e+00 -1.0789741282765002e+02 -1.4068868212814499e+02 -2.4127602047651052e+02 0 0 0
2822 81 2 0.0000000000000000e+00 -1.0476037383616485e+02 -1.3267342490890061e+02 -2.3546869442404412e+02 0 0 0
6239 179 4 0.0000000000000000e+00 -1.2026822121328375e+02 -1.1084350257979182e+02 -2.3938467719580299e+02 0 0 0
6329 181 4 0.0000000000000000e+00 -6.4838441042351334e+01 -9.2805133311408810e+01 -2.3362055139000586e+02 0 0 0
6330 181 4 0.0000000000000000e+00 -6.3810549864678272e+01 -8.3590142625863450e+01 -2.3725738986645592e+02 0 0 0
6331 181 4 0.0000000000000000e+00 -6.2574295965722726e+01 -7.4034854344633629e+01 -2.4016564154365327e+02 0 0 0
3015 87 2 0.0000000000000000e+00 -6.7735004357260749e+01 -5.3535774555879108e+01 -2.4267885274565779e+02 0 0 0
3016 87 2 0.0000000000000000e+00 -6.4630633436708990e+01 -4.9708865502643690e+01 -2.3424566769809508e+02 0 0 0
3017 87 2 0.0000000000000000e+00 -5.9528052075950434e+01 -4.1515618948137273e+01 -2.3178078004075095e+02 0 0 0
5887 169 4 0.0000000000000000e+00 -1.1936330710100729e+02 1.5480942179179758e+01 -2.3794430002605569e+02 0 0 0
5884 169 3 0.0000000000000000e+00 -1.2937134730241468e+02 2.4508833665344280e+01 -2.4194190156335151e+02 0 0 0
2820 81 2 0.0000000000000000e+00 -1.0503177823907141e+02 -1.2301465495115393e+02 -2.2097605622845813e+02 0 0 0
2821 81 2 0.0000000000000000e+00 -1.0064996231085060e+02 -1.2757750754235531e+02 -2.2770059848609444e+02 0 0 0
6240 179 4 0.0000000000000000e+00 -1.1713898962323100e+02 -1.0806640668880544e+02 -2.3075050647899837e+02 0 0 0
2819 81 2 0.0000000000000000e+00 -1.1015025437199323e+02 -1.1445378703602748e+02 -2.1925787388402560e+02 0 0 0
6326 181 4 0.0000000000000000e+00 -8.0890855357809215e+01 -1.0954142328749408e+02 -2.2005408194803508e+02 0 0 0
6241 179 3 0.0000000000000000e+00 -1.1640291475545008e+02 -1.0535583703617610e+02 -2.2125574768610898e+02 0 0 0
6327 181 4 0.0000000000000000e+00 -7.4507527953576400e+01 -1.0209474779645032e+02 -2.2293049834107862e+02 0 0 0
6328 181 4 0.0000000000000000e+00 -7.3007473505401833e+01 -9.3859798057810380e+01 -2.2788874063760966e+02 0 0 0
1636 47 2 0.0000000000000000e+00 -7.6418421483599801e+01 -8.5134818103365717e+01 -2.1998761237081820e+02 0 0 0
1638 47 2 0.0000000000000000e+00 -7.3503528337522397e+01 -6.6556742333995061e+01 -2.2365441218337656e+02 0 0 0
1637 47 2 0.0000000000000000e+00 -7.5991775640924772e+01 -7.6230865935188618e+01 -2.2500385885761330e+02 0 0 0
1639 47 2 0.0000000000000000e+00 -7.3897219258313825e+01 -5.6710101964495159e+01 -2.2568726114076071e+02 0 0 0
4730 136 4 0.0000000000000000e+00 -2.6939897473012945e+01 -6.1576971966474879e+01 -2.2218519476681928e+02 0 0 0
1640 47 2 0.0000000000000000e+00 -7.6292995103876876e+01 -4.6620948942185464e+01 -2.2714089869227041e+02 0 0 0
3018 87 2 0.0000000000000000e+00 -5.2650852031278468e+01 -4.1428659153653349e+01 -2.2491592860788720e+02 0 0 0
3019 87 2 0.0000000000000000e+00 -4.2509940744881959e+01 -4.0179568449514178e+01 -2.2319509337072876e+02 0 0 0
3020 87 2 0.0000000000000000e+00 -3.2267152996959211e+01 -3.9162964580144234e+01 -2.2185329021183784e+02 0 0 0
6265 179 4 0.0000000000000000e+00 -1.5376584533926476e+02 -2.5469962378938277e+01 -2.2232460540915494e+02 0 0 0
6264 179 4 0.0000000000000000e+00 -1.4469006229689398e+02 -2.6670431677475484e+01 -2.1985520342778756e+02 0 0 0
6263 179 4 0.0000000000000000e+00 -1.3461267023269539e+02 -2.7761297204502313e+01 -2.2011840297514888e+02 0 0 0
1641 47 2 0.0000000000000000e+00 -7.4164617413251406e+01 -3.6801454502196641e+01 -2.2832946026868947e+02 0 0 0
1642 47 1 0.0000000000000000e+00 -7.0618974949596563e+01 -2.7552716852529400e+01 -2.2731141116055389e+02 0 0 0
1643 47 2 0.0000000000000000e+00 -6.4575262175282376e+01 -2.2012484301717247e+01 -2.2294763664828983e+02 0 0 0
5888 169 4 0.0000000000000000e+00 -1.1544958713910971e+02 1.3444973829752355e+01 -2.2916831737800192e+02 0 0 0
5889 169 4 0.0000000000000000e+00 -1.0772765741035813e+02 1.2044694162419381e+01 -2.2229988446606598e+02 0 0 0
593 17 2 0.0000000000000000e+00 -9.5326875732541026e+01 7.8120188762335694e+00 -2.1743195769719554e+02 0 0 0
5890 169 4 0.0000000000000000e+00 -1.0137192706101968e+02 1.9061637648793774e+01 -2.1878768765345166e+02 0 0 0
6323 181 4 0.0000000000000000e+00 -9.7810364589834705e+01 -1.2816392527254368e+02 -2.0417327404176100e+02 0 0 0
6324 181 4 0.0000000000000000e+00 -9.2902240547865716e+01 -1.2363092749651578e+02 -2.1182520823046181e+02 0 0 0
2817 81 2 0.0000000000000000e+00 -1.2423032116316958e+02 -1.1715094260140407e+02 -2.0772036376200887e+02 0 0 0
2818 81 1 0.0000000000000000e+00 -1.1913882903682503e+02 -1.1505792905806445e+02 -2.1612265089061492e+02 0 0 0
2091 60 2 0.0000000000000000e+00 -9.5276011912205689e+01 -1.1116276982806812e+02 -2.0763931487205005e+02 0 0 0
6325 181 3 0.0000000000000000e+00 -8.6636285856349815e+01 -1.1672921795551846e+02 -2.1705178156876261e+02 0 0 0
2090 60 1 0.0000000000000000e+00 -9.2011524534666933e+01 -1.0640275368511070e+02 -2.1579267375684068e+02 0 0 0
1633 47 2 0.0000000000000000e+00 -7.4886539081741219e+01 -1.1094059242462708e+02 -2.1089551753436024e+02 0 0 0
6242 179 4 0.0000000000000000e+00 -1.1182182103794946e+02 -9.9954843624145511e+01 -2.1406485305607117e+02 0 0 0
6243 179 4 0.0000000000000000e+00 -1.0359612171933331e+02 -9.6722780931125911e+01 -2.0775102407899166e+02 0 0 0
2089 60 2 0.0000000000000000e+00 -8.6510894031090317e+01 -1.0022439579327958e+02 -2.0935321800398748e+02 0 0 0
2088 60 2 0.0000000000000000e+00 -8.0265948650647488e+01 -9.3956677577806985e+01 -2.0544042860944967e+02 0 0 0
1634 47 2 0.0000000000000000e+00 -7.0260073845216752e+01 -1.0276815106372037e+02 -2.1488688875361294e+02 0 0 0
1635 47 1 0.0000000000000000e+00 -7.3634557874019208e+01 -9.2650329315180954e+01 -2.1412295186180279e+02 0 0 0
6248 179 3 0.0000000000000000e+00 -6.8533935007428326e+01 -8.9159311404545008e+01 -2.0494892642851053e+02 0 0 0
6249 179 4 0.0000000000000000e+00 -6.2852883512373289e+01 -8.2345028131748620e+01 -2.1002999989436162e+02 0 0 0
6250 179 4 0.0000000000000000e+00 -5.4895899302963393e+01 -7.6572787098553860e+01 -2.1015106126173100e+02 0 0 0
6251 179 4 0.0000000000000000e+00 -5.8598550532326485e+01 -6.8943166488954333e+01 -2.1548292285296182e+02 0 0 0
2082 60 2 0.0000000000000000e+00 -1.1440041805116311e+02 -5.9572392039259178e+01 -2.0749986169909420e+02 0 0 0
2084 60 2 0.0000000000000000e+00 -9.6677613655524510e+01 -6.3515941994544910e+01 -2.0480555402508608e+02 0 0 0
2083 60 1 0.0000000000000000e+00 -1.0517494122309657e+02 -6.2097846565725021e+01 -2.0992950040566512e+02 0 0 0
6256 179 4 0.0000000000000000e+00 -9.4236235884794297e+01 -5.4681813403346723e+01 -2.0658920459388486e+02 0 0 0
6257 179 4 0.0000000000000000e+00 -1.0405245965132804e+02 -5.1571917770507859e+01 -2.0676353701614721e+02 0 0 0
6253 179 4 0.0000000000000000e+00 -7.0869027481515658e+01 -6.2800018743718994e+01 -2.0609535103404738e+02 0 0 0
6252 179 4 0.0000000000000000e+00 -6.5567046589997020e+01 -6.1991641885615643e+01 -2.1527260086938600e+02 0 0 0
6262 179 3 0.0000000000000000e+00 -1.2586021380840776e+02 -2.3924085921087418e+01 -2.1680257948668117e+02 0 0 0
6261 179 4 0.0000000000000000e+00 -1.1648291299063153e+02 -2.5789468300195370e+01 -2.1407583567956908e+02 0 0 0
6260 179 4 0.0000000000000000e+00 -1.1119572035111729e+02 -2.7120568637520414e+01 -2.0618142968064834e+02 0 0 0
2068 60 2 0.0000000000000000e+00 -1.3745781809989859e+02 -1.0400220939730149e+01 -2.1146317123906445e+02 0 0 0
2069 60 1 0.0000000000000000e+00 -1.2753311468252427e+02 -1.4093562431479663e+01 -2.1187025178070331e+02 0 0 0
2070 60 2 0.0000000000000000e+00 -1.1820948426734080e+02 -1.6360155038572369e+01 -2.1063955298772547e+02 0 0 0
1644 47 2 0.0000000000000000e+00 -5.9337234579630511e+01 -1.7342363094568658e+01 -2.1496985562838512e+02 0 0 0
1645 47 2 0.0000000000000000e+00 -5.4553597472784233e+01 -2.0959080365431507e+01 -2.0664703454666014e+02 0 0 0
2066 60 2 0.0000000000000000e+00 -1.5283301014589884e+02 2.2684960741060674e+00 -2.1440626664872522e+02 0 0 0
2067 60 2 0.0000000000000000e+00 -1.4545187215521184e+02 -5.1248199039019191e+00 -2.1318535195563888e+02 0 0 0
594 17 2 0.0000000000000000e+00 -1.0310711084571427e+02 1.3802253363021875e+00 -2.1345615941327597e+02 0 0 0
595 17 2 0.0000000000000000e+00 -1.0558489370751194e+02 -5.1843093616930771e+00 -2.0630399838580459e+02 0 0 0
592 17 1 0.0000000000000000e+00 -8.7517480396619575e+01 1.3622875378195134e+01 -2.1521581265126085e+02 0 0 0
6161 177 4 0.0000000000000000e+00 -3.6912645151376424e+01 1.2967216082165246e+01 -2.1031371119645246e+02 0 0 0
5891 169 3 0.0000000000000000e+00 -9.4760860773853807e+01 2.0831378629671921e+01 -2.1150317715974799e+02 0 0 0
591 17 2 0.0000000000000000e+00 -8.3984528407092924e+01 2.2662282705333631e+01 -2.1390353040914383e+02 0 0 0
590 17 2 0.0000000000000000e+00 -7.8954477023557828e+01 2.8077043488507666e+01 -2.0768905352258832e+02 0 0 0
6162 177 4 0.0000000000000000e+00 -4.3052427255906025e+01 2.0972944403151175e+01 -2.0876336407236926e+02 0 0 0
2815 81 2 0.0000000000000000e+00 -1.3770439445342683e+02 -1.2304333914231535e+02 -1.9578076550455464e+02 0 0 0
2816 81 2 0.0000000000000000e+00 -1.2871283412808256e+02 -1.2260869029012105e+02 -2.0037043397394166e+02 0 0 0
6321 181 4 0.0000000000000000e+00 -1.0865204471343728e+02 -1.2205654153546564e+02 -1.9228178759238500e+02 0 0 0
6322 181 4 0.0000000000000000e+00 -1.0251651962243798e+02 -1.2932089595101573e+02 -1.9530986338170342e+02 0 0 0
1631 47 2 0.0000000000000000e+00 -7.5661360461385982e+01 -1.2174525923330314e+02 -1.9786584590409385e+02 0 0 0
1630 47 2 0.0000000000000000e+00 -6.7382566509615117e+01 -1.2371906133189060e+02 -1.9200283442019304e+02 0 0 0
6320 181 4 0.0000000000000000e+00 -1.1562465913433364e+02 -1.1412722089650967e+02 -1.9341559248270724e+02 0 0 0
2092 60 2 0.0000000000000000e+00 -9.0773689502111210e+01 -1.1123860490558548e+02 -1.9817873441235176e+02 0 0 0
1632 47 2 0.0000000000000000e+00 -8.0467953353085747e+01 -1.1410434984866063e+02 -2.0362322686075643e+02 0 0 0
4865 139 4 0.0000000000000000e+00 -6.5794115820689157e+01 -1.0877237694127248e+02 -1.9664084512345238e+02 0 0 0
6244 179 4 0.0000000000000000e+00 -9.4339319715437085e+01 -9.7076029645915838e+01 -2.0355525699885914e+02 0 0 0
2093 60 2 0.0000000000000000e+00 -9.2680726735757460e+01 -1.0277225632365038e+02 -1.9259261938053919e+02 0 0 0
6245 179 4 0.0000000000000000e+00 -8.5395615975558925e+01 -9.9337524266936356e+01 -1.9914938063401328e+02 0 0 0
6246 179 4 0.0000000000000000e+00 -7.6972856176093131e+01 -1.0102889529018621e+02 -1.9443575095235229e+02 0 0 0
6247 179 4 0.0000000000000000e+00 -6.9761283383789177e+01 -9.8979900299751932e+01 -2.0126110594617853e+02 0 0 0
1506 44 2 0.0000000000000000e+00 -1.1429320011728842e+02 -8.6722019637780420e+01 -1.9812877647929534e+02 0 0 0
1507 44 2 0.0000000000000000e+00 -1.1952793352944754e+02 -8.0146776576001884e+01 -1.9296426396306393e+02 0 0 0
2086 60 2 0.0000000000000000e+00 -8.3776456493784210e+01 -7.8629838745697015e+01 -2.0075672616193751e+02 0 0 0
2087 60 2 0.0000000000000000e+00 -8.1900772226955496e+01 -8.7720309286874240e+01 -1.9809344540285136e+02 0 0 0
2085 60 2 0.0000000000000000e+00 -8.9964653137885549e+01 -7.0804167996561034e+01 -2.0312299869483567e+02 0 0 0
6254 179 4 0.0000000000000000e+00 -7.9723447846196294e+01 -6.5080630722227454e+01 -2.0288234319884197e+02 0 0 0
2079 60 2 0.0000000000000000e+00 -1.4206755990741357e+02 -5.5200975818628237e+01 -1.9870913174062713e+02 0 0 0
2081 60 2 0.0000000000000000e+00 -1.2313389675608957e+02 -5.9025303346343492e+01 -2.0352362732025853e+02 0 0 0
2080 60 2 0.0000000000000000e+00 -1.3302207589673191e+02 -5.8677729447551457e+01 -2.0146885707286626e+02 0 0 0
2486 72 2 0.0000000000000000e+00 -1.1801854017189663e+02 -5.2215271203014574e+01 -1.9234518081217863e+02 0 0 0
2487 72 2 0.0000000000000000e+00 -1.0858537772360904e+02 -5.1472927171885409e+01 -1.9170676127199039e+02 0 0 0
6255 179 3 0.0000000000000000e+00 -8.8019488630219556e+01 -5.9676912094863084e+01 -2.0100492910196439e+02 0 0 0
6258 179 4 0.0000000000000000e+00 -1.0941324964725597e+02 -4.4743432442346119e+01 -2.0169989570320834e+02 0 0 0
2488 72 2 0.0000000000000000e+00 -1.0075918448540256e+02 -4.8227839956159585e+01 -1.9636498781674035e+02 0 0 0
2489 72 1 0.0000000000000000e+00 -9.1131574174305413e+01 -4.9704750152894874e+01 -1.9872003083206297e+02 0 0 0
2490 72 2 0.0000000000000000e+00 -8.2940201271398109e+01 -4.6845123433277507e+01 -1.9451973597155313e+02 0 0 0
2491 72 2 0.0000000000000000e+00 -7.6006381999365672e+01 -4.0732787445052928e+01 -1.9066390047940703e+02 0 0 0
6259 179 4 0.0000000000000000e+00 -1.1068103452601062e+02 -3.5315188048389629e+01 -2.0117400758168102e+02 0 0 0
2072 60 2 0.0000000000000000e+00 -1.1948841501405026e+02 -2.6164089070703017e+01 -1.9289138505361859e+02 0 0 0
5915 169 4 0.0000000000000000e+00 -9.8089364968539513e+01 -2.7419672854540764e+01 -1.9196920280730299e+02 0 0 0
2071 60 2 0.0000000000000000e+00 -1.1889930482940784e+02 -2.1471435061487242e+01 -2.0129535948809368e+02 0 0 0
2495 72 2 0.0000000000000000e+00 -7.0301192292856086e+01 -1.6395611291745254e+01 -1.9117389895355464e+02 0 0 0
5907 169 4 0.0000000000000000e+00 -3.8678952337335659e+01 -1.1162504731795204e+01 -1.9410892114411271e+02 0 0 0
6337 182 4 0.0000000000000000e+00 -1.4016106285417942e+02 -2.9481609991506454e+00 -1.9378754514960673e+02 0 0 0
6336 182 4 0.0000000000000000e+00 -1.3173191662149623e+02 -5.5365786019924936e+00 -1.9884485125806142e+02 0 0 0
5906 169 4 0.0000000000000000e+00 -2.9238067675084576e+01 -7.5615395118171689e+00 -1.9521065455705036e+02 0 0 0
5892 169 4 0.0000000000000000e+00 -9.6299312893581785e+01 2.5918697664629175e+01 -2.0339386150519704e+02 0 0 0
585 17 1 0.0000000000000000e+00 -4.0317879037169277e+01 3.0106659841260985e+01 -1.9397591507722797e+02 0 0 0
586 17 2 0.0000000000000000e+00 -4.9545367403317861e+01 2.7806966891556350e+01 -1.9191916703065743e+02 0 0 0
584 17 2 0.0000000000000000e+00 -3.1739091910354254e+01 2.5611342204754528e+01 -1.9508564519331074e+02 0 0 0
2814 81 2 0.0000000000000000e+00 -1.4520137526589872e+02 -1.1990950286952261e+02 -1.8845475200647797e+02 0 0 0
2813 81 2 0.0000000000000000e+00 -1.4648114269313999e+02 -1.2069398839317206e+02 -1.7850468118755973e+02 0 0 0
2100 60 2 0.0000000000000000e+00 -9.4885461217682931e+01 -1.2978739267994015e+02 -1.8731063900785614e+02 0 0 0
2099 60 2 0.0000000000000000e+00 -9.7707018496652964e+01 -1.2119065633046698e+02 -1.8118818409273467e+02 0 0 0
1629 47 2 0.0000000000000000e+00 -6.1347048831960947e+01 -1.2671728954670240e+02 -1.8572814271063041e+02 0 0 0
6319 181 4 0.0000000000000000e+00 -1.2401918460815224e+02 -1.1596720902094350e+02 -1.8865508148314257e+02 0 0 0
6318 181 3 0.0000000000000000e+00 -1.3263943782933455e+02 -1.1247331044886486e+02 -1.8421470544590207e+02 0 0 0
4863 139 4 0.0000000000000000e+00 -8.0479761959887639e+01 -1.1605247331130121e+02 -1.8612664698730748e+02 0 0 0
4864 139 4 0.0000000000000000e+00 -7.2966258323024121e+01 -1.1136034105801900e+02 -1.9000577317588011e+02 0 0 0
5502 158 4 0.0000000000000000e+00 -1.0809429322240027e+02 -9.3537625265394539e+01 -1.7870552061829412e+02 0 0 0
2094 60 2 0.0000000000000000e+00 -9.0982241052603527e+01 -9.5506330718458457e+01 -1.8602483424083920e+02 0 0 0
2095 60 2 0.0000000000000000e+00 -9.0730119338053555e+01 -1.0085478491021628e+02 -1.7701405461424770e+02 0 0 0
5500 158 4 0.0000000000000000e+00 -1.2624132439192574e+02 -8.6912560847318545e+01 -1.7983253870627129e+02 0 0 0
5501 158 4 0.0000000000000000e+00 -1.1716195522989319e+02 -9.0118393336335501e+01 -1.8168694873351510e+02 0 0 0
1330 38 2 0.0000000000000000e+00 -4.8509886970596817e+01 -8.3314579832619657e+01 -1.8851811646037018e+02 0 0 0
1329 38 2 0.0000000000000000e+00 -4.9364123844244219e+01 -8.1364665229915644e+01 -1.7852309794956068e+02 0 0 0
1508 44 2 0.0000000000000000e+00 -1.2241870534701883e+02 -7.5680761031608085e+01 -1.8419653560460634e+02 0 0 0
5499 158 3 0.0000000000000000e+00 -1.3086607615365466e+02 -7.8114644993683427e+01 -1.7928788818773037e+02 0 0 0
2078 60 2 0.0000000000000000e+00 -1.4363027715341858e+02 -5.2064190570959255e+01 -1.8935021586436389e+02 0 0 0
2077 60 2 0.0000000000000000e+00 -1.4588722224574789e+02 -5.2369794274378208e+01 -1.8030013912593483e+02 0 0 0
1368 40 2 0.0000000000000000e+00 -1.7413718632178103e+02 -3.7931873504582128e+01 -1.7906574144326822e+02 0 0 0
2076 60 1 0.0000000000000000e+00 -1.4215485187691905e+02 -4.3746969159854437e+01 -1.7738965114511959e+02 0 0 0
1369 40 1 0.0000000000000000e+00 -1.7853486098897548e+02 -2.9267838533266321e+01 -1.8100363608439852e+02 0 0 0
2073 60 2 0.0000000000000000e+00 -1.2071324638689912e+02 -3.0281657694148819e+01 -1.8420351067481621e+02 0 0 0
2492 72 2 0.0000000000000000e+00 -7.0346806988197187e+01 -3.4806431469473736e+01 -1.8547754923023044e+02 0 0 0
5911 169 4 0.0000000000000000e+00 -6.5549304772943529e+01 -2.4671156167911796e+01 -1.7736864715406898e+02 0 0 0
2493 72 2 0.0000000000000000e+00 -6.2221287000621025e+01 -2.9706522144794846e+01 -1.8602985380373207e+02 0 0 0
1370 40 2 0.0000000000000000e+00 -1.7146465609593434e+02 -2.3590057211840865e+01 -1.8510697912198714e+02 0 0 0
1371 40 2 0.0000000000000000e+00 -1.6407208295545090e+02 -1.8162032659660323e+01 -1.8014703786440606e+02 0 0 0
1372 40 2 0.0000000000000000e+00 -1.5788940388001976e+02 -1.0566759441619093e+01 -1.7831143212915578e+02 0 0 0
5914 169 4 0.0000000000000000e+00 -9.4363491299517108e+01 -2.3648473778607549e+01 -1.8398137660799219e+02 0 0 0
5913 169 4 0.0000000000000000e+00 -8.5615132372429827e+01 -2.2631330901703841e+01 -1.7832788422624233e+02 0 0 0
5912 169 3 0.0000000000000000e+00 -7.5201735107571011e+01 -2.1472657026165241e+01 -1.7737668905294865e+02 0 0 0
2496 72 1 0.0000000000000000e+00 -7.5690492991506304e+01 -1.2598441315752737e+01 -1.8367218130739039e+02 0 0 0
2494 72 2 0.0000000000000000e+00 -6.2616219232993380e+01 -2.0136827864368151e+01 -1.8621519408757612e+02 0 0 0
5909 169 4 0.0000000000000000e+00 -5.3500474561347986e+01 -1.3319042592091044e+01 -1.8136547862072550e+02 0 0 0
5908 169 4 0.0000000000000000e+00 -4.7380545132695850e+01 -1.0308434176807056e+01 -1.8910241711840371e+02 0 0 0
1753 51 2 0.0000000000000000e+00 -2.5480973982072673e+01 -1.4136226798302948e+01 -1.7919701462358904e+02 0 0 0
6338 182 4 0.0000000000000000e+00 -1.4907373690769123e+02 -4.2331999373770888e+00 -1.8982453073106149e+02 0 0 0
5541 159 3 0.0000000000000000e+00 -1.2765062626717297e+02 -1.1541211226043875e+00 -1.7759624371247500e+02 0 0 0
2497 72 2 0.0000000000000000e+00 -7.9749077563871595e+01 -5.9289441151750122e+00 -1.7828286710703722e+02 0 0 0
1751 51 2 0.0000000000000000e+00 -3.9301294800443060e+01 -1.2725849425755409e+00 -1.8465513359767982e+02 0 0 0
1752 51 2 0.0000000000000000e+00 -3.2646224257622308e+01 -8.9003278824029461e+00 -1.8286755760966770e+02 0 0 0
6339 182 3 0.0000000000000000e+00 -1.5176979719042674e+02 5.3059710664781496e+00 -1.8989457233884281e+02 0 0 0
6340 182 4 0.0000000000000000e+00 -1.5535694509974090e+02 1.3432574001682777e+01 -1.8540203235626350e+02 0 0 0
1891 55 2 0.0000000000000000e+00 -2.9653638011241291e+01 1.6636171782941528e+01 -1.7942382281068055e+02 0 0 0
5903 169 4 0.0000000000000000e+00 -2.6207958970319734e+01 5.7871156676160371e+00 -1.7734272951126368e+02 0 0 0
6341 182 4 0.0000000000000000e+00 -1.5370226815600682e+02 2.2607107093217508e+01 -1.8123011634174355e+02 0 0 0
5896 169 4 0.0000000000000000e+00 -6.6542344205365310e+01 3.0022325573625743e+01 -1.8125219916719817e+02 0 0 0
587 17 2 0.0000000000000000e+00 -5.9103303843683072e+01 2.9872960427320432e+01 -1.8994886771359543e+02 0 0 0
4860 139 4 0.0000000000000000e+00 -7.0888328879302037e+01 -1.2405191104763847e+02 -1.6482002211679804e+02 0 0 0
4861 139 4 0.0000000000000000e+00 -7.3219059180426129e+01 -1.2049294101846954e+02 -1.7361283642392260e+02 0 0 0
1628 47 1 0.0000000000000000e+00 -6.4476600938015196e+01 -1.2671220928247379e+02 -1.7649215002199901e+02 0 0 0
1627 47 2 0.0000000000000000e+00 -5.7068342656925559e+01 -1.2208300239409181e+02 -1.7223383879620587e+02 0 0 0
2812 81 2 0.0000000000000000e+00 -1.3821008350980432e+02 -1.1892787817159089e+02 -1.7251287911702090e+02 0 0 0
6317 181 4 0.0000000000000000e+00 -1.3753180270560981e+02 -1.0877622728960388e+02 -1.7640883130097515e+02 0 0 0
2811 81 1 0.0000000000000000e+00 -1.2923437000671939e+02 -1.1437877950987004e+02 -1.7383279113870174e+02 0 0 0
2810 81 2 0.0000000000000000e+00 -1.2031751677557145e+02 -1.0939750934939939e+02 -1.7244854518192875e+02 0 0 0
2098 60 2 0.0000000000000000e+00 -9.3727059593813436e+01 -1.1436229702340188e+02 -1.7539343082181972e+02 0 0 0
5504 158 4 0.0000000000000000e+00 -9.7742586672751727e+01 -1.0581649620910477e+02 -1.6794160722348931e+02 0 0 0
4862 139 3 0.0000000000000000e+00 -8.1485986711530245e+01 -1.1629813031062908e+02 -1.7671958302279225e+02 0 0 0
2097 60 1 0.0000000000000000e+00 -8.7102033568905284e+01 -1.1196790154863672e+02 -1.6780437953332856e+02 0 0 0
6301 181 4 0.0000000000000000e+00 -7.5319817919806852e+01 -1.0700399985416951e+02 -1.6965381803864173e+02 0 0 0
6316 181 4 0.0000000000000000e+00 -1.3801508021938116e+02 -1.0442298390988607e+02 -1.6718459995417055e+02 0 0 0
2809 81 2 0.0000000000000000e+00 -1.1232901680363301e+02 -1.0334427140911447e+02 -1.7039619519191839e+02 0 0 0
2808 81 2 0.0000000000000000e+00 -1.0930052420242643e+02 -9.5045531099116488e+01 -1.6557089755018342e+02 0 0 0
5503 158 4 0.0000000000000000e+00 -1.0182081508104088e+02 -1.0089406603527199e+02 -1.7571517373696972e+02 0 0 0
2096 60 2 0.0000000000000000e+00 -8.6591958370212794e+01 -1.0228846716151476e+02 -1.6797925216749098e+02 0 0 0
5426 156 4 0.0000000000000000e+00 -4.0355000606744781e+01 -1.0376131316125745e+02 -1.7478804188993976e+02 0 0 0
5427 156 4 0.0000000000000000e+00 -3.8837127972556814e+01 -9.4282016043553568e+01 -1.7134211864514342e+02 0 0 0
5509 158 4 0.0000000000000000e+00 -9.6394798049914087e+01 -8.1731034441013350e+01 -1.6433846814462831e+02 0 0 0
5428 156 4 0.0000000000000000e+00 -3.8354437544343362e+01 -8.4411071140350799e+01 -1.7289272071121593e+02 0 0 0
5498 158 4 0.0000000000000000e+00 -1.2983851273958163e+02 -7.2244806424065700e+01 -1.7125503184769872e+02 0 0 0
1509 44 1 0.0000000000000000e+00 -1.2089341705030739e+02 -7.4375985265107460e+01 -1.7464682514336687e+02 0 0 0
1510 44 2 0.0000000000000000e+00 -1.1479310678066309e+02 -7.1751194789826641e+01 -1.6741271014917285e+02 0 0 0
1328 38 2 0.0000000000000000e+00 -4.4543320872981184e+01 -7.4440558008908695e+01 -1.7248375140894649e+02 0 0 0
1327 38 1 0.0000000000000000e+00 -4.1337419442242236e+01 -6.6095819764498444e+01 -1.6804115328015973e+02 0 0 0
5429 156 3 0.0000000000000000e+00 -3.6285737674667381e+01 -7.6305313881941572e+01 -1.6722712552372948e+02 0 0 0
1318 38 2 0.0000000000000000e+00 -3.1113277860174939e+01 -5.3061686742147558e+01 -1.6954735618584073e+02 0 0 0
1366 40 2 0.0000000000000000e+00 -1.6770958148328717e+02 -4.7291968750580047e+01 -1.6626510165304887e+02 0 0 0
1367 40 2 0.0000000000000000e+00 -1.6700530075890140e+02 -4.3708796139581558e+01 -1.7533115142507205e+02 0 0 0
5548 159 3 0.0000000000000000e+00 -1.4609977832741961e+02 -5.0313724545622719e+01 -1.6955165857745698e+02 0 0 0
5547 159 4 0.0000000000000000e+00 -1.3570178386585954e+02 -4.9550395531159118e+01 -1.6951247881474572e+02 0 0 0
2075 60 2 0.0000000000000000e+00 -1.3439369809331123e+02 -3.8279381651673141e+01 -1.7378765780339066e+02 0 0 0
5546 159 4 0.0000000000000000e+00 -1.2809353277331479e+02 -4.7019184385190130e+01 -1.6402298575799099e+02 0 0 0
5545 159 4 0.0000000000000000e+00 -1.2571436148280176e+02 -3.7585584900061647e+01 -1.6364741136383881e+02 0 0 0
1381 40 2 0.0000000000000000e+00 -1.0747880130653927e+02 -3.8418435907294040e+01 -1.6497582094466438e+02 0 0 0
1322 38 2 0.0000000000000000e+00 -5.3253998954505199e+01 -4.4025073360939629e+01 -1.6530656556066310e+02 0 0 0
1320 38 1 0.0000000000000000e+00 -4.0220286090153138e+01 -3.7788384505686061e+01 -1.7084929537549044e+02 0 0 0
1319 38 2 0.0000000000000000e+00 -3.3492997780995445e+01 -4.3698098641917937e+01 -1.6589642236923228e+02 0 0 0
4760 136 4 0.0000000000000000e+00 -2.5977969948238773e+01 -4.1386889884082713e+01 -1.7296306653321599e+02 0 0 0
2074 60 2 0.0000000000000000e+00 -1.2670684608389425e+02 -3.2110956156765695e+01 -1.7688965687579179e+02 0 0 0
5544 159 4 0.0000000000000000e+00 -1.2362781545817170e+02 -2.8348956990050734e+01 -1.6820081330405725e+02 0 0 0
1379 40 2 0.0000000000000000e+00 -1.1381239495137164e+02 -2.5179973388803301e+01 -1.7200912351487443e+02 0 0 0
1380 40 2 0.0000000000000000e+00 -1.0597222092946626e+02 -3.1235867130758496e+01 -1.7179362440162561e+02 0 0 0
1321 38 2 0.0000000000000000e+00 -5.0187777883490348e+01 -3.6990443241079738e+01 -1.7128699336040773e+02 0 0 0
4750 136 3 0.0000000000000000e+00 -4.0287846644601210e+01 -2.7564751276253570e+01 -1.6711324891740762e+02 0 0 0
4749 136 4 0.0000000000000000e+00 -3.0796877121227400e+01 -2.6514156243819379e+01 -1.6855323425087408e+02 0 0 0
3745 107 4 0.0000000000000000e+00 -1.8126567168235451e+02 -1.5407268232346686e+01 -1.7416076939639112e+02 0 0 0
3744 107 4 0.0000000000000000e+00 -1.7481811038310536e+02 -1.2948863434121201e+01 -1.6679567676330700e+02 0 0 0
5542 159 4 0.0000000000000000e+00 -1.2886482238026008e+02 -1.0645562826739679e+01 -1.7538479161988167e+02 0 0 0
5543 159 4 0.0000000000000000e+00 -1.2614781806534783e+02 -1.9665522074044539e+01 -1.7172535630153880e+02 0 0 0
1377 40 2 0.0000000000000000e+00 -1.2431168943237256e+02 -1.1087146743581778e+01 -1.6574672338786360e+02 0 0 0
1378 40 2 0.0000000000000000e+00 -1.1547909489537011e+02 -1.5487802382496433e+01 -1.6877683999760603e+02 0 0 0
5910 169 4 0.0000000000000000e+00 -5.9038596144664588e+01 -1.8087046162473293e+01 -1.7375844721233352e+02 0 0 0
4753 136 4 0.0000000000000000e+00 -4.5726245371590927e+01 -1.4200468375496612e+01 -1.6824761668100803e+02 0 0 0
4754 136 4 0.0000000000000000e+00 -3.5943559466858765e+01 -1.5189305189466754e+01 -1.6923257087962529e+02 0 0 0
4755 136 4 0.0000000000000000e+00 -2.7203705662190668e+01 -1.0396546207183256e+01 -1.6953832704904954e+02 0 0 0
1373 40 2 0.0000000000000000e+00 -1.5503801851201311e+02 -1.8021037754348337e+00 -1.7446336641822381e+02 0 0 0