LAMMPS data file via write_data, version 5 Jun 2019, timestep = 370000000

7000 atoms
4 atom types
7259 bonds
3 bond types
6600 angles
2 angle types

-5.0000000000000000e+02 5.0000000000000000e+02 xlo xhi
-5.0000000000000000e+02 5.0000000000000000e+02 ylo yhi
-5.0000000000000000e+02 5.0000000000000000e+02 zlo zhi

Masses

1 1000
2 1000
3 1000
4 1000

Pair Coeffs # lj/cut

1 0.178 10
2 0.178 10
3 0.178 10
4 0.178 10

Angle Coeffs # cosine

1 2
2 2

Atoms # full

4726 136 4 0.0000000000000000e+00 -4.4389584455499254e+01 -1.0169380050582542e+02 -2.9926161401935769e+02 0 0 0
3015 87 2 0.0000000000000000e+00 -8.6202609974231223e+01 -6.6158987284680492e+01 -2.9807598826494444e+02 0 0 0
3017 87 2 0.0000000000000000e+00 -6.8653151148171887e+01 -7.5277119778247467e+01 -3.0167166551964158e+02 0 0 0
3016 87 2 0.0000000000000000e+00 -7.7861065713035813e+01 -7.0938280817234471e+01 -2.9920087217106874e+02 0 0 0
6335 181 4 0.0000000000000000e+00 -8.2887913180524762e+01 -4.0498967723933077e+01 -2.9909084268165805e+02 0 0 0
4727 136 4 0.0000000000000000e+00 -3.7559010634141217e+01 -9.7281929047484496e+01 -2.9392553410516814e+02 0 0 0
4728 136 4 0.0000000000000000e+00 -3.2880358896708259e+01 -9.2603708170810080e+01 -2.8616381667473195e+02 0 0 0
3019 87 2 0.0000000000000000e+00 -5.5424890886426113e+01 -8.4727500739365183e+01 -2.9183044576418115e+02 0 0 0
3018 87 2 0.0000000000000000e+00 -5.9577324130085522e+01 -7.6639972470789559e+01 -2.9669121087903665e+02 0 0 0
3011 87 2 0.0000000000000000e+00 -1.0876581393864834e+02 -5.6060494448133348e+01 -2.8665998542316817e+02 0 0 0
3013 87 2 0.0000000000000000e+00 -9.9098836309318344e+01 -5.3032447324240096e+01 -2.9304025524171499e+02 0 0 0
3014 87 1 0.0000000000000000e+00 -9.0366983824038769e+01 -5.8098966902987016e+01 -2.9342886011847690e+02 0 0 0
6333 181 4 0.0000000000000000e+00 -8.5387292859496611e+01 -5.2086511766257210e+01 -2.8777562762706935e+02 0 0 0
3012 87 2 0.0000000000000000e+00 -1.0615720153982566e+02 -4.6712141421749230e+01 -2.8973943700876606e+02 0 0 0
6334 181 4 0.0000000000000000e+00 -8.1467857968626149e+01 -4.2999467305305132e+01 -2.8992946921475328e+02 0 0 0
3020 87 2 0.0000000000000000e+00 -5.0606248606609618e+01 -8.6389200290802393e+01 -2.8348820631285059e+02 0 0 0
3021 87 1 0.0000000000000000e+00 -4.4878683976271084e+01 -7.9206626073067042e+01 -2.8009047169975821e+02 0 0 0
4729 136 3 0.0000000000000000e+00 -3.5007343167420991e+01 -8.4408306215944251e+01 -2.8160697804984784e+02 0 0 0
4730 136 4 0.0000000000000000e+00 -2.9321178527598004e+01 -7.8610573268844135e+01 -2.7583336458768349e+02 0 0 0
6328 181 4 0.0000000000000000e+00 -9.7655963614631474e+01 -6.6346055217424095e+01 -2.7820482064727855e+02 0 0 0
3022 87 2 0.0000000000000000e+00 -3.9526779573806095e+01 -7.5974816531277284e+01 -2.7216041865387911e+02 0 0 0
6332 181 3 0.0000000000000000e+00 -9.4814390579161824e+01 -5.3918287494317532e+01 -2.8379647975334154e+02 0 0 0
6329 181 4 0.0000000000000000e+00 -9.3176654312220663e+01 -5.7172024450956002e+01 -2.7565504319071312e+02 0 0 0
6331 181 4 0.0000000000000000e+00 -1.0028541078868871e+02 -4.8155422599266366e+01 -2.7737397683016513e+02 0 0 0
2825 81 1 0.0000000000000000e+00 -1.1768875618035774e+02 -1.4058154354537288e+02 -2.6724465150273130e+02 0 0 0
2826 81 2 0.0000000000000000e+00 -1.1032610465757902e+02 -1.3992424351833316e+02 -2.6056305210803214e+02 0 0 0
2824 81 2 0.0000000000000000e+00 -1.2168744651380145e+02 -1.3190128655267506e+02 -2.6285659583418948e+02 0 0 0
2823 81 2 0.0000000000000000e+00 -1.2704237242689099e+02 -1.2401224621911695e+02 -2.6551218256350859e+02 0 0 0
2822 81 2 0.0000000000000000e+00 -1.3045958807254283e+02 -1.1425248988004529e+02 -2.6327705719998255e+02 0 0 0
3024 87 2 0.0000000000000000e+00 -3.3439128085968733e+01 -9.2574322955868908e+01 -2.6384773514638516e+02 0 0 0
3025 87 2 0.0000000000000000e+00 -3.1614232366920234e+01 -1.0121189047490832e+02 -2.5895918819089667e+02 0 0 0
6325 181 3 0.0000000000000000e+00 -8.8537547665543443e+01 -7.7998444451076580e+01 -2.5760445812230387e+02 0 0 0
2090 60 1 0.0000000000000000e+00 -7.7333312053963212e+01 -7.8764561677837420e+01 -2.5908074627298521e+02 0 0 0
2091 60 2 0.0000000000000000e+00 -7.6704284863018756e+01 -8.8147216111362155e+01 -2.5785322821038397e+02 0 0 0
3023 87 2 0.0000000000000000e+00 -3.6566439964366580e+01 -8.3332037472316387e+01 -2.6620331939807096e+02 0 0 0
4731 136 4 0.0000000000000000e+00 -2.3883370260071473e+01 -8.3163130351816392e+01 -2.6881592377429894e+02 0 0 0
4732 136 4 0.0000000000000000e+00 -1.9304865218529429e+01 -8.3023134972817104e+01 -2.5988422772139666e+02 0 0 0
6327 181 4 0.0000000000000000e+00 -9.8802346445950960e+01 -7.1403218257995306e+01 -2.6956913472582374e+02 0 0 0
6326 181 4 0.0000000000000000e+00 -9.7837427296865997e+01 -7.7518889014127254e+01 -2.6190334289506609e+02 0 0 0
2088 60 2 0.0000000000000000e+00 -8.1843600747954355e+01 -6.8291702393876704e+01 -2.5892921069212264e+02 0 0 0
2089 60 2 0.0000000000000000e+00 -7.6479096379987027e+01 -7.1581952129267336e+01 -2.6637451498045363e+02 0 0 0
6330 181 4 0.0000000000000000e+00 -9.3603025592999145e+01 -4.9065271765363306e+01 -2.6955060994326703e+02 0 0 0
2827 81 2 0.0000000000000000e+00 -1.0937141959937881e+02 -1.4037421208755998e+02 -2.5073963201876086e+02 0 0 0
2821 81 2 0.0000000000000000e+00 -1.2574683376340816e+02 -1.0975410363369923e+02 -2.5492180997417839e+02 0 0 0
6238 179 4 0.0000000000000000e+00 -9.5594176325111647e+01 -1.1319098800448910e+02 -2.5211143814160516e+02 0 0 0
6239 179 4 0.0000000000000000e+00 -1.0204887872773934e+02 -1.0565456118966372e+02 -2.5057077105745347e+02 0 0 0
6237 179 4 0.0000000000000000e+00 -9.1351257421161122e+01 -1.0741287829932361e+02 -2.4418248400852997e+02 0 0 0
3026 87 2 0.0000000000000000e+00 -2.6859205338356290e+01 -1.0823310769541128e+02 -2.5383093319286368e+02 0 0 0
2820 81 2 0.0000000000000000e+00 -1.2333568785037275e+02 -1.0418780441088087e+02 -2.4673226541400348e+02 0 0 0
2819 81 2 0.0000000000000000e+00 -1.1993041572092574e+02 -9.4611190040013355e+01 -2.4555271306836519e+02 0 0 0
6240 179 4 0.0000000000000000e+00 -1.0575261185247533e+02 -9.6822023573587586e+01 -2.4842557526443065e+02 0 0 0
2092 60 2 0.0000000000000000e+00 -7.1218383252628314e+01 -9.5508490312889379e+01 -2.5361919778888296e+02 0 0 0
2093 60 2 0.0000000000000000e+00 -6.2971564749657873e+01 -9.7000106381046280e+01 -2.4824316033883017e+02 0 0 0
2094 60 2 0.0000000000000000e+00 -5.4308765808705850e+01 -9.6607406169702131e+01 -2.5382002389268644e+02 0 0 0
2095 60 2 0.0000000000000000e+00 -4.7040573665375646e+01 -9.8776860976868377e+01 -2.4697025991483611e+02 0 0 0
3027 87 2 0.0000000000000000e+00 -2.0406696556284437e+01 -1.0332249962086161e+02 -2.4708009362989654e+02 0 0 0
2818 81 1 0.0000000000000000e+00 -1.1731693724104596e+02 -8.4811691850850849e+01 -2.4440753133282882e+02 0 0 0
6241 179 3 0.0000000000000000e+00 -1.0713102036961575e+02 -8.7763621022527005e+01 -2.4469693861245170e+02 0 0 0
6324 181 4 0.0000000000000000e+00 -8.1361456507547558e+01 -7.8170360442826947e+01 -2.5024842705219675e+02 0 0 0
4733 136 4 0.0000000000000000e+00 -1.9905646013974717e+01 -8.6665722733372078e+01 -2.5080651866243107e+02 0 0 0
2081 60 2 0.0000000000000000e+00 -1.1889890402632189e+02 -6.9064454450110546e+01 -2.4902771653592617e+02 0 0 0
2082 60 2 0.0000000000000000e+00 -1.0999407406443174e+02 -6.9407104442817385e+01 -2.4409208318932764e+02 0 0 0
2087 60 2 0.0000000000000000e+00 -8.3783398753716170e+01 -6.7031429619216595e+01 -2.4930830162213044e+02 0 0 0
2828 81 2 0.0000000000000000e+00 -1.1462124384064593e+02 -1.4030433486862918e+02 -2.4193742190052859e+02 0 0 0
2829 81 2 0.0000000000000000e+00 -1.1411804988726878e+02 -1.3552833797753382e+02 -2.3320029339478600e+02 0 0 0
6232 179 4 0.0000000000000000e+00 -8.1710943860061434e+01 -1.3642607023302764e+02 -2.3167022922465264e+02 0 0 0
6231 179 4 0.0000000000000000e+00 -8.0237542479520101e+01 -1.4453268462157592e+02 -2.3743218248820330e+02 0 0 0
2830 81 2 0.0000000000000000e+00 -1.0538270942939772e+02 -1.3075346043680173e+02 -2.3203209828494980e+02 0 0 0
2831 81 2 0.0000000000000000e+00 -9.6060477947552329e+01 -1.3061835025813684e+02 -2.3574749350459547e+02 0 0 0
2832 81 1 0.0000000000000000e+00 -8.6932900733776819e+01 -1.2782145361542858e+02 -2.3914376944405689e+02 0 0 0
6234 179 3 0.0000000000000000e+00 -8.0236780548575950e+01 -1.1963909267130597e+02 -2.3513008129209845e+02 0 0 0
2833 81 2 0.0000000000000000e+00 -7.6613167280635480e+01 -1.2662182120988371e+02 -2.4033457208892014e+02 0 0 0
2834 81 2 0.0000000000000000e+00 -6.7364006422004380e+01 -1.3037166003990129e+02 -2.3893599287077006e+02 0 0 0
6233 179 4 0.0000000000000000e+00 -7.8509664270639107e+01 -1.2789989896989663e+02 -2.3028851341201272e+02 0 0 0
2835 81 2 0.0000000000000000e+00 -6.3155242391114719e+01 -1.2374782247439002e+02 -2.3291884581843570e+02 0 0 0
1631 47 2 0.0000000000000000e+00 -4.9213082198306758e+01 -1.2453206062265595e+02 -2.3700439344503738e+02 0 0 0
2100 60 2 0.0000000000000000e+00 -2.3593204264102557e+01 -1.2744992772004582e+02 -2.3130764572748387e+02 0 0 0
6235 179 4 0.0000000000000000e+00 -7.9663872594573959e+01 -1.1027987096321803e+02 -2.3329494566652210e+02 0 0 0
1632 47 2 0.0000000000000000e+00 -5.3218578476795699e+01 -1.1586160715660820e+02 -2.3716692387618457e+02 0 0 0
1633 47 2 0.0000000000000000e+00 -5.6786991707347433e+01 -1.0701832581815941e+02 -2.3927092150407526e+02 0 0 0
2097 60 1 0.0000000000000000e+00 -3.2239889431887441e+01 -1.0604378957929772e+02 -2.3764254935533202e+02 0 0 0
2099 60 2 0.0000000000000000e+00 -2.1144837224069057e+01 -1.1792586602351447e+02 -2.3422296548248431e+02 0 0 0
2098 60 2 0.0000000000000000e+00 -2.3380581805373854e+01 -1.1022639819592688e+02 -2.3930088347794793e+02 0 0 0
6236 179 4 0.0000000000000000e+00 -8.4737898283237200e+01 -1.0280584273630937e+02 -2.3758237673981105e+02 0 0 0
1634 47 2 0.0000000000000000e+00 -5.5846890101616424e+01 -9.6835365331279704e+01 -2.4106282017760563e+02 0 0 0
4865 139 4 0.0000000000000000e+00 -4.4707749692695501e+01 -9.4761776012906267e+01 -2.3304893369183017e+02 0 0 0
2096 60 2 0.0000000000000000e+00 -4.1301737136387011e+01 -1.0301657694156172e+02 -2.3876975994101781e+02 0 0 0
3028 87 1 0.0000000000000000e+00 -1.5534995556183137e+01 -1.0252709499194330e+02 -2.3860043816188326e+02 0 0 0
2817 81 2 0.0000000000000000e+00 -1.1741464747612990e+02 -8.3170273191992607e+01 -2.3440226851061345e+02 0 0 0
6242 179 4 0.0000000000000000e+00 -1.0500723211565050e+02 -7.8473825783626026e+01 -2.4162114710457871e+02 0 0 0
6323 181 4 0.0000000000000000e+00 -8.1064971236814543e+01 -8.2930588234004233e+01 -2.4177545512242071e+02 0 0 0
6322 181 4 0.0000000000000000e+00 -8.3174973622839957e+01 -9.0340499311410113e+01 -2.3515231978917947e+02 0 0 0
6248 179 3 0.0000000000000000e+00 -6.7415815671880608e+01 -9.0521179214886658e+01 -2.3805208004796143e+02 0 0 0
6247 179 4 0.0000000000000000e+00 -6.6838048386846268e+01 -8.0769918022730209e+01 -2.4137379544696518e+02 0 0 0
1635 47 1 0.0000000000000000e+00 -5.6785964878630992e+01 -8.7058698538879526e+01 -2.3897924630361891e+02 0 0 0
4735 136 4 0.0000000000000000e+00 -2.8745041880061692e+01 -9.0561784490755997e+01 -2.3365973970741359e+02 0 0 0
4734 136 4 0.0000000000000000e+00 -2.3987686516659373e+01 -8.6336492493329942e+01 -2.4183790530756818e+02 0 0 0
2080 60 2 0.0000000000000000e+00 -1.2695005417894950e+02 -6.9845630548818448e+01 -2.4266566111414141e+02 0 0 0
2816 81 2 0.0000000000000000e+00 -1.2125137365255344e+02 -7.3902223549900000e+01 -2.3518979826615862e+02 0 0 0
6243 179 4 0.0000000000000000e+00 -9.9635733681233503e+01 -7.2229939973954728e+01 -2.3567828232304495e+02 0 0 0
6244 179 4 0.0000000000000000e+00 -9.0557010346258522e+01 -7.4234247282848997e+01 -2.3112773321807347e+02 0 0 0
6245 179 4 0.0000000000000000e+00 -8.3393590849826325e+01 -7.2052063958388345e+01 -2.3763426789636259e+02 0 0 0
6246 179 4 0.0000000000000000e+00 -7.4121134614396382e+01 -7.4600833131499456e+01 -2.3972680730623307e+02 0 0 0
1636 47 2 0.0000000000000000e+00 -5.7487557850482041e+01 -7.7274021411565926e+01 -2.3560767012869545e+02 0 0 0
2079 60 2 0.0000000000000000e+00 -1.3008695249582354e+02 -6.2073367364017209e+01 -2.3696688109205894e+02 0 0 0
2083 60 1 0.0000000000000000e+00 -1.0332913331109322e+02 -6.3143040610660201e+01 -2.4051510180588349e+02 0 0 0
2084 60 2 0.0000000000000000e+00 -9.5698978449189397e+01 -5.6268423414087756e+01 -2.3858095855038781e+02 0 0 0
2085 60 2 0.0000000000000000e+00 -8.6611652846120904e+01 -5.4108175566120821e+01 -2.3516862691298030e+02 0 0 0
2086 60 2 0.0000000000000000e+00 -8.6914597763762174e+01 -6.1807172026890775e+01 -2.4131059361054167e+02 0 0 0
4746 136 4 0.0000000000000000e+00 -1.2266101900742349e+01 -3.9406850685199238e+01 -2.3331148479759119e+02 0 0 0
1630 47 2 0.0000000000000000e+00 -4.7818854759627605e+01 -1.2465898859963914e+02 -2.2698111737448798e+02 0 0 0
1629 47 2 0.0000000000000000e+00 -4.3592743580773387e+01 -1.1922116511979152e+02 -2.1957895319785666e+02 0 0 0
4862 139 3 0.0000000000000000e+00 -3.6130491366407526e+01 -1.1191904804100609e+02 -2.1756732277825762e+02 0 0 0
6319 181 4 0.0000000000000000e+00 -1.0333531584133267e+02 -9.6969117621003377e+01 -2.1968693605237883e+02 0 0 0
4864 139 4 0.0000000000000000e+00 -4.4589713458703073e+01 -9.4042307286163094e+01 -2.2301562607102127e+02 0 0 0
4863 139 4 0.0000000000000000e+00 -4.1203506668524014e+01 -1.0262428602172227e+02 -2.1844354747874516e+02 0 0 0
4736 136 3 0.0000000000000000e+00 -3.1945791965441895e+01 -9.8845087736390028e+01 -2.2887244029411596e+02 0 0 0
4737 136 4 0.0000000000000000e+00 -3.1727369879582824e+01 -1.0121328693459841e+02 -2.1949257923163728e+02 0 0 0
6320 181 4 0.0000000000000000e+00 -9.9591225829252991e+01 -9.0068177437913619e+01 -2.2697871861635193e+02 0 0 0
5426 156 4 0.0000000000000000e+00 -9.3705496807381508e+01 -8.2753514877929447e+01 -2.1944711947287897e+02 0 0 0
6321 181 4 0.0000000000000000e+00 -9.0923797182403192e+01 -8.6240990610115503e+01 -2.2970310725539727e+02 0 0 0
6249 179 4 0.0000000000000000e+00 -6.8487857125245100e+01 -8.7601463572644036e+01 -2.2820220476193163e+02 0 0 0
6250 179 4 0.0000000000000000e+00 -7.2788156638721091e+01 -8.0522320405691303e+01 -2.2273848541966717e+02 0 0 0
2815 81 2 0.0000000000000000e+00 -1.2136218224284640e+02 -6.6043214094391885e+01 -2.2952909141947077e+02 0 0 0
2813 81 2 0.0000000000000000e+00 -1.0909409889641152e+02 -6.7191109941213412e+01 -2.1803659248831895e+02 0 0 0
6253 179 4 0.0000000000000000e+00 -9.7006666763500391e+01 -6.5285340912133634e+01 -2.1908733250228858e+02 0 0 0
6251 179 4 0.0000000000000000e+00 -8.1098185529850795e+01 -7.5624446342149980e+01 -2.2056755229763155e+02 0 0 0
6252 179 4 0.0000000000000000e+00 -9.0433049139976021e+01 -7.2504796066315919e+01 -2.1938637214452794e+02 0 0 0
1637 47 2 0.0000000000000000e+00 -6.0840543189487953e+01 -7.0488058347148723e+01 -2.2860272451265874e+02 0 0 0
1638 47 2 0.0000000000000000e+00 -5.7349921812221851e+01 -6.5975102596141369e+01 -2.2085099452757450e+02 0 0 0
4742 136 4 0.0000000000000000e+00 -3.0186741048779975e+01 -6.6168177434064390e+01 -2.2275581992647847e+02 0 0 0
4741 136 4 0.0000000000000000e+00 -3.4525071335638664e+01 -7.3384113867469878e+01 -2.1787733748538886e+02 0 0 0
2078 60 2 0.0000000000000000e+00 -1.2921538655124868e+02 -5.7733691541746012e+01 -2.2769478369954749e+02 0 0 0
2077 60 2 0.0000000000000000e+00 -1.2433595504173165e+02 -5.6519925282471917e+01 -2.1942175839772702e+02 0 0 0
2814 81 2 0.0000000000000000e+00 -1.1528374615619838e+02 -6.1381270302904596e+01 -2.2291490120425181e+02 0 0 0
1639 47 2 0.0000000000000000e+00 -4.7201779422874239e+01 -6.4155372328915035e+01 -2.1854290277916999e+02 0 0 0
1640 47 2 0.0000000000000000e+00 -3.9896492663795321e+01 -5.7725750157694470e+01 -2.2183522495408769e+02 0 0 0
4743 136 3 0.0000000000000000e+00 -2.4203902789481003e+01 -5.8908840540854264e+01 -2.1926844909087177e+02 0 0 0
4744 136 4 0.0000000000000000e+00 -1.5544712310555614e+01 -5.5197138147385708e+01 -2.2234571670565037e+02 0 0 0
4745 136 4 0.0000000000000000e+00 -1.3759662734700163e+01 -4.7571389520069161e+01 -2.2881855924690092e+02 0 0 0
4749 136 4 0.0000000000000000e+00 -1.9517332252304886e+01 -2.5297652924202655e+01 -2.1686611200706963e+02 0 0 0
4748 136 4 0.0000000000000000e+00 -1.5204863512935411e+01 -2.3434587933762323e+01 -2.2558511135752391e+02 0 0 0
1627 47 2 0.0000000000000000e+00 -4.8165623136963852e+01 -1.1517206338549857e+02 -2.0567503395513921e+02 0 0 0
1628 47 1 0.0000000000000000e+00 -4.0161135874408338e+01 -1.1851911212573177e+02 -2.1029555047437131e+02 0 0 0
4861 139 4 0.0000000000000000e+00 -2.6856030795512993e+01 -1.1435849256566864e+02 -2.1521059047786821e+02 0 0 0
4860 139 4 0.0000000000000000e+00 -1.7135613535874480e+01 -1.1161262480194533e+02 -2.1385428673354929e+02 0 0 0
6317 181 4 0.0000000000000000e+00 -1.0920599948404085e+02 -9.8365489524551691e+01 -2.0347891501237373e+02 0 0 0
6318 181 3 0.0000000000000000e+00 -1.0434488459148157e+02 -9.3480211706056082e+01 -2.1079534418002891e+02 0 0 0
1623 47 2 0.0000000000000000e+00 -6.4286630501377019e+01 -9.2328532356331124e+01 -2.0922956933813796e+02 0 0 0
1624 47 2 0.0000000000000000e+00 -5.5470308742962743e+01 -9.7339099376961300e+01 -2.0650189644672776e+02 0 0 0
4738 136 4 0.0000000000000000e+00 -3.4949166314255564e+01 -9.9221134339979514e+01 -2.1016539629093546e+02 0 0 0
2811 81 1 0.0000000000000000e+00 -1.0375222686370384e+02 -8.2333818813002878e+01 -2.0779066350992653e+02 0 0 0
5427 156 4 0.0000000000000000e+00 -8.4962649237527486e+01 -8.1794660562814173e+01 -2.1369756100378083e+02 0 0 0
1621 47 1 0.0000000000000000e+00 -8.2165810539906133e+01 -9.1168569869060633e+01 -2.0805329929217470e+02 0 0 0
1622 47 2 0.0000000000000000e+00 -7.3557050717484998e+01 -9.1280057580410897e+01 -2.1230631211085617e+02 0 0 0
5428 156 4 0.0000000000000000e+00 -7.6425775456488964e+01 -8.1695515419789629e+01 -2.0815375509606096e+02 0 0 0
4739 136 4 0.0000000000000000e+00 -3.9806890261176079e+01 -9.1049979894785949e+01 -2.1266522315168407e+02 0 0 0
4740 136 4 0.0000000000000000e+00 -3.8807807579414479e+01 -8.1320969359219845e+01 -2.1458338399846960e+02 0 0 0
2812 81 2 0.0000000000000000e+00 -1.0510701441446616e+02 -7.3911607364677778e+01 -2.1243567359391173e+02 0 0 0
2076 60 1 0.0000000000000000e+00 -1.2146120160560943e+02 -5.2707963168429188e+01 -2.1070680420299973e+02 0 0 0
2487 72 2 0.0000000000000000e+00 -8.0356326458096021e+01 -6.2322881645197953e+01 -2.0456265170666006e+02 0 0 0
6254 179 4 0.0000000000000000e+00 -9.3275668958846992e+01 -5.9591112050128707e+01 -2.1127612311697806e+02 0 0 0
2488 72 2 0.0000000000000000e+00 -8.2843734135680236e+01 -5.8133264582370259e+01 -2.1262135060285070e+02 0 0 0
1641 47 2 0.0000000000000000e+00 -3.3982498579150025e+01 -5.9740091482651032e+01 -2.1358308317164887e+02 0 0 0
1642 47 1 0.0000000000000000e+00 -2.5621265890081382e+01 -5.8190651849015723e+01 -2.0842251426411076e+02 0 0 0
5355 153 4 0.0000000000000000e+00 -1.4458581345762935e+01 -6.3131367731127099e+01 -2.1527140045505314e+02 0 0 0
2075 60 2 0.0000000000000000e+00 -1.1672199976529463e+02 -4.5279968474738240e+01 -2.0598108580429655e+02 0 0 0
2489 72 1 0.0000000000000000e+00 -8.7439133362719261e+01 -4.9957513644822683e+01 -2.1206868416088020e+02 0 0 0
2490 72 2 0.0000000000000000e+00 -8.4710478482342268e+01 -4.0750511959624681e+01 -2.1024325100720202e+02 0 0 0
3199 92 2 0.0000000000000000e+00 -4.0278406588730057e+01 -4.7095661906615284e+01 -2.0457508777837097e+02 0 0 0
2491 72 2 0.0000000000000000e+00 -8.3957572811883580e+01 -3.0779110682679342e+01 -2.0909376595098422e+02 0 0 0
3201 92 2 0.0000000000000000e+00 -2.7563282625167034e+01 -3.4831456395438082e+01 -2.0349505428468916e+02 0 0 0
3202 92 2 0.0000000000000000e+00 -1.7827139247093150e+01 -3.4217602057547985e+01 -2.0645514581996304e+02 0 0 0
2492 72 2 0.0000000000000000e+00 -8.0394152314912688e+01 -2.1692357556699690e+01 -2.0577245135201397e+02 0 0 0
2493 72 2 0.0000000000000000e+00 -7.2068599140468422e+01 -1.6851533809343174e+01 -2.0739276080322512e+02 0 0 0
4750 136 3 0.0000000000000000e+00 -1.7369301446864664e+01 -2.2816998818419592e+01 -2.0718611558801987e+02 0 0 0
2913 84 2 0.0000000000000000e+00 -1.6285133510322569e+02 -3.3891907279792015e+00 -2.0328141666470816e+02 0 0 0
6265 179 4 0.0000000000000000e+00 -1.3090736197924409e+02 -7.4415069859127856e+00 -2.0408275390077040e+02 0 0 0
2494 72 2 0.0000000000000000e+00 -6.9339975060549392e+01 -8.0385530598026218e+00 -2.0446483342773206e+02 0 0 0
2495 72 2 0.0000000000000000e+00 -6.8959598852269366e+01 1.6842825372837813e+00 -2.0604065156714364e+02 0 0 0
5911 169 4 0.0000000000000000e+00 -5.6746855019101922e+01 -4.2343171352050142e+00 -2.0429374623621908e+02 0 0 0
5910 169 4 0.0000000000000000e+00 -4.7011648153374274e+01 -4.0578322097964294e+00 -2.0608194212421034e+02 0 0 0
5909 169 4 0.0000000000000000e+00 -4.0550589287189467e+01 -5.0301680173090082e+00 -2.1321184825434844e+02 0 0 0
5908 169 4 0.0000000000000000e+00 -3.1754927048265891e+01 -9.3157284655893484e+00 -2.1448785384864942e+02 0 0 0
5907 169 4 0.0000000000000000e+00 -2.2297811117700032e+01 -7.0816695925932347e+00 -2.1628619541255847e+02 0 0 0
5906 169 4 0.0000000000000000e+00 -2.0687237483338290e+01 -5.8800358121108562e+00 -2.0677359894080610e+02 0 0 0
6315 181 4 0.0000000000000000e+00 -1.2331622172174470e+02 -1.0856819795686287e+02 -1.9507603492536691e+02 0 0 0
1626 47 2 0.0000000000000000e+00 -5.6239113363910405e+01 -1.1138907537616168e+02 -2.0027144813276266e+02 0 0 0
6313 181 4 0.0000000000000000e+00 -1.3252859300861488e+02 -9.1883632676689331e+01 -1.9270526194206263e+02 0 0 0
6314 181 4 0.0000000000000000e+00 -1.2669682927560336e+02 -9.9503197808695717e+01 -1.9479839222972853e+02 0 0 0
6316 181 4 0.0000000000000000e+00 -1.1607320875539979e+02 -1.0191015223069819e+02 -1.9733092204026693e+02 0 0 0
2809 81 2 0.0000000000000000e+00 -1.0625902852054841e+02 -9.5151928799009156e+01 -1.9195133296786798e+02 0 0 0
1625 47 2 0.0000000000000000e+00 -6.1590547408041211e+01 -1.0312110979876873e+02 -2.0152735653321471e+02 0 0 0
2810 81 2 0.0000000000000000e+00 -1.0399558780837647e+02 -8.9390996963371563e+01 -2.0001752512622443e+02 0 0 0
1620 47 2 0.0000000000000000e+00 -8.9476834022600443e+01 -8.7778774718515976e+01 -2.0197940828643223e+02 0 0 0
1619 47 2 0.0000000000000000e+00 -9.1531472445150825e+01 -7.8144877101506040e+01 -1.9986454750286407e+02 0 0 0
5429 156 3 0.0000000000000000e+00 -7.6180687481967013e+01 -8.6676862158059990e+01 -2.0035404653253386e+02 0 0 0
5430 156 4 0.0000000000000000e+00 -7.3596259727197818e+01 -8.1797296058164790e+01 -1.9134604757672798e+02 0 0 0
5442 156 4 0.0000000000000000e+00 -4.8997245161475277e+01 -8.7629070097314795e+01 -1.9252000461193953e+02 0 0 0
1618 47 2 0.0000000000000000e+00 -9.5550449881885200e+01 -6.8995222068244473e+01 -1.9603804067231553e+02 0 0 0
3195 92 2 0.0000000000000000e+00 -6.1467485273493416e+01 -7.3675488499255792e+01 -1.9030753941113042e+02 0 0 0
5443 156 3 0.0000000000000000e+00 -4.8007739245113981e+01 -7.7778266724610233e+01 -1.8997949605279911e+02 0 0 0
5353 153 4 0.0000000000000000e+00 -1.4300901931967232e+01 -6.9776360570514868e+01 -1.9816534493782876e+02 0 0 0
1611 47 2 0.0000000000000000e+00 -1.5192828258920139e+02 -6.1936935588973029e+01 -1.9207149838105877e+02 0 0 0
5548 159 3 0.0000000000000000e+00 -1.2492046980177233e+02 -5.5633856146892327e+01 -2.0081603934454265e+02 0 0 0
5547 159 4 0.0000000000000000e+00 -1.1617213773578924e+02 -5.6168004298621682e+01 -1.9642013923577872e+02 0 0 0
1617 47 2 0.0000000000000000e+00 -1.0395132445849907e+02 -6.2869210841911134e+01 -1.9240489124764264e+02 0 0 0
6255 179 3 0.0000000000000000e+00 -9.2307964558109063e+01 -5.4677859619968700e+01 -2.0291848843488353e+02 0 0 0
2486 72 2 0.0000000000000000e+00 -7.4848408519099692e+01 -6.2571052527250274e+01 -1.9661687106476035e+02 0 0 0
3198 92 2 0.0000000000000000e+00 -4.1314339034846348e+01 -5.5324969276804936e+01 -1.9864664564370858e+02 0 0 0
3197 92 2 0.0000000000000000e+00 -4.5503915739869207e+01 -6.3849143184226300e+01 -1.9442972288875515e+02 0 0 0
1643 47 2 0.0000000000000000e+00 -2.9363033434702249e+01 -5.2384203782062116e+01 -2.0079228748073265e+02 0 0 0
2521 73 2 0.0000000000000000e+00 -1.8944797607845456e+02 -3.7312434281178795e+01 -1.9897266360796618e+02 0 0 0
2522 73 2 0.0000000000000000e+00 -1.8679359264679292e+02 -4.2715681126278419e+01 -1.9086887353297345e+02 0 0 0
5551 159 4 0.0000000000000000e+00 -1.4656979457030286e+02 -3.9331489920319967e+01 -1.9770047650653757e+02 0 0 0
5550 159 4 0.0000000000000000e+00 -1.4328220685493963e+02 -4.8619555105439780e+01 -2.0002856514558280e+02 0 0 0
5549 159 4 0.0000000000000000e+00 -1.3337043074082547e+02 -5.0556031454500577e+01 -1.9999171006533047e+02 0 0 0
2074 60 2 0.0000000000000000e+00 -1.2260970448208383e+02 -4.2008188336276490e+01 -1.9870300486788199e+02 0 0 0
6256 179 4 0.0000000000000000e+00 -9.5737141134949994e+01 -4.6705861448498084e+01 -1.9831317494653592e+02 0 0 0
6257 179 4 0.0000000000000000e+00 -9.4468189391654747e+01 -3.7321684967553338e+01 -1.9608228818267585e+02 0 0 0
1327 38 1 0.0000000000000000e+00 -5.5468722680653144e+01 -4.5619472452559236e+01 -1.9000026248317894e+02 0 0 0
3200 92 2 0.0000000000000000e+00 -3.6516306458171123e+01 -3.8565122780872834e+01 -2.0268217312604389e+02 0 0 0
1644 47 2 0.0000000000000000e+00 -3.0632594445152229e+01 -4.4406224610456256e+01 -1.9398329145932405e+02 0 0 0
5553 159 4 0.0000000000000000e+00 -1.5946931598039009e+02 -3.1521583659794139e+01 -1.9087314423523117e+02 0 0 0
5552 159 4 0.0000000000000000e+00 -1.5454314805028741e+02 -3.4082921794568335e+01 -1.9943428524227713e+02 0 0 0
2072 60 2 0.0000000000000000e+00 -1.3503718965802884e+02 -2.7725109056389620e+01 -1.9719096517925269e+02 0 0 0
2073 60 2 0.0000000000000000e+00 -1.2965970988208238e+02 -3.5641335324339117e+01 -1.9670409879710215e+02 0 0 0
1645 47 2 0.0000000000000000e+00 -3.2070812194781894e+01 -3.4745900505399817e+01 -1.9152272748005018e+02 0 0 0
2921 84 2 0.0000000000000000e+00 -2.0162408993200737e+02 -1.3115090157893565e+01 -1.9315097329694126e+02 0 0 0
2071 60 2 0.0000000000000000e+00 -1.3991965658029463e+02 -2.0293698869937998e+01 -1.9251374063565549e+02 0 0 0
6263 179 4 0.0000000000000000e+00 -1.2181756573925495e+02 -1.7882085160863735e+01 -1.9245746057218724e+02 0 0 0
4751 136 4 0.0000000000000000e+00 -1.4075620462788066e+01 -2.3408026982676443e+01 -1.9753431178555317e+02 0 0 0
2914 84 2 0.0000000000000000e+00 -1.6589774718521412e+02 2.6523960258689493e-02 -1.9380973631018324e+02 0 0 0
6264 179 4 0.0000000000000000e+00 -1.2259169424741313e+02 -9.5262257074161116e+00 -1.9856512928362332e+02 0 0 0
2066 60 2 0.0000000000000000e+00 -1.1396271757784396e+02 -2.6302725964325244e+00 -1.9561694883324327e+02 0 0 0
5912 169 3 0.0000000000000000e+00 -5.9978101803993759e+01 2.8594132377081385e+00 -1.9839498563982545e+02 0 0 0
5904 169 4 0.0000000000000000e+00 -3.1055258512345553e+01 1.4576749482127851e+00 -1.9155364471775630e+02 0 0 0
5905 169 3 0.0000000000000000e+00 -2.5284529902492061e+01 -1.7006170054810628e+00 -1.9890272637829148e+02 0 0 0
5496 158 4 0.0000000000000000e+00 -6.4720186720455885e+01 -1.2076241157342051e+02 -1.7918169042343601e+02 0 0 0
2807 81 2 0.0000000000000000e+00 -1.1361364303202606e+02 -1.0785083586993669e+02 -1.8309325090245653e+02 0 0 0
5498 158 4 0.0000000000000000e+00 -8.0067104741382650e+01 -1.0879218004469919e+02 -1.7634106902659130e+02 0 0 0
5497 158 4 0.0000000000000000e+00 -7.2357578597431825e+01 -1.1499885281158109e+02 -1.7871737219093214e+02 0 0 0
5439 156 4 0.0000000000000000e+00 -6.1559037845903198e+01 -1.1197511263270144e+02 -1.8058666942506588e+02 0 0 0
4856 139 4 0.0000000000000000e+00 -1.5666401645399999e+01 -1.1715246107752225e+02 -1.8190727070592783e+02 0 0 0
2806 81 2 0.0000000000000000e+00 -1.2283759742484438e+02 -1.0502204137539816e+02 -1.8014207696397438e+02 0 0 0
2808 81 2 0.0000000000000000e+00 -1.0725349939545762e+02 -1.0417521445974830e+02 -1.8902314707801429e+02 0 0 0
5501 158 4 0.0000000000000000e+00 -1.0293219164138833e+02 -9.4806948896903819e+01 -1.8226853204099640e+02 0 0 0
5500 158 4 0.0000000000000000e+00 -9.5601017730427813e+01 -1.0162955189498469e+02 -1.8330513464899266e+02 0 0 0
5499 158 3 0.0000000000000000e+00 -8.8332899879798163e+01 -1.0310199409385540e+02 -1.7692721416727301e+02 0 0 0
5440 156 4 0.0000000000000000e+00 -5.5907716919760780e+01 -1.0467381935840821e+02 -1.8596667768896702e+02 0 0 0
5441 156 4 0.0000000000000000e+00 -4.9724978222257562e+01 -9.7372855520982412e+01 -1.8915610325712657e+02 0 0 0
6312 181 4 0.0000000000000000e+00 -1.3919945427469361e+02 -9.1233726473721205e+01 -1.8565822278664564e+02 0 0 0
5503 158 4 0.0000000000000000e+00 -1.1839531252566627e+02 -8.4833055008997505e+01 -1.7988598203481496e+02 0 0 0
5502 158 4 0.0000000000000000e+00 -1.0956062070653884e+02 -8.8786818144117731e+01 -1.7757092816643649e+02 0 0 0
5431 156 4 0.0000000000000000e+00 -7.3667605819493673e+01 -8.4106080245783048e+01 -1.8153367965589587e+02 0 0 0
3193 92 2 0.0000000000000000e+00 -6.4142304052046796e+01 -8.9302289484990524e+01 -1.8097156211414304e+02 0 0 0
3194 92 2 0.0000000000000000e+00 -6.3409606774736623e+01 -8.3616463381736637e+01 -1.8852953527757205e+02 0 0 0
1613 47 2 0.0000000000000000e+00 -1.3503832214400208e+02 -6.6910593131940871e+01 -1.8497580846790595e+02 0 0 0
1614 47 1 0.0000000000000000e+00 -1.2552036382747471e+02 -6.8390509232479261e+01 -1.8128098645667677e+02 0 0 0
1615 47 2 0.0000000000000000e+00 -1.1610841645843624e+02 -6.4506252122673629e+01 -1.7942549282390542e+02 0 0 0
1616 47 2 0.0000000000000000e+00 -1.0671728665070110e+02 -6.4402262278129228e+01 -1.8335822644706380e+02 0 0 0
3196 92 1 0.0000000000000000e+00 -5.2972768110783903e+01 -6.7622546845739180e+01 -1.8859592762956186e+02 0 0 0
5444 156 4 0.0000000000000000e+00 -3.9434304286340925e+01 -7.5147604658438766e+01 -1.8492618050672155e+02 0 0 0
5445 156 4 0.0000000000000000e+00 -2.9362684128401330e+01 -7.3623624711573498e+01 -1.8357735245798827e+02 0 0 0