LAMMPS data file via write_data, version 5 Jun 2019, timestep = 310000000

7000 atoms
4 atom types
7256 bonds
3 bond types
6600 angles
2 angle types

-5.0000000000000000e+02 5.0000000000000000e+02 xlo xhi
-5.0000000000000000e+02 5.0000000000000000e+02 ylo yhi
-5.0000000000000000e+02 5.0000000000000000e+02 zlo zhi

Masses

1 1000
2 1000
3 1000
4 1000

Pair Coeffs # lj/cut

1 0.178 10
2 0.178 10
3 0.178 10
4 0.178 10

Angle Coeffs # cosine

1 2
2 2

Atoms # full

483 14 2 0.0000000000000000e+00 -3.0516984389596669e+01 4.0114836942161194e+00 -2.0324146256324710e+02 0 0 0
4756 136 4 0.0000000000000000e+00 -3.4768747285754351e+01 2.2881563053512181e+01 -2.0073657793823938e+02 0 0 0
6202 178 4 0.0000000000000000e+00 -1.0164578870577429e+02 5.2391878157420159e+01 -2.0077675228396672e+02 0 0 0
475 14 2 0.0000000000000000e+00 -4.0886723729779725e+01 4.5622667425544734e+01 -2.0681113059780733e+02 0 0 0
2100 60 2 0.0000000000000000e+00 -6.5062025262113480e+01 -1.1558299934717716e+02 -1.9195759843196018e+02 0 0 0
2088 60 2 0.0000000000000000e+00 -7.3354510626073477e+01 -1.0653959272369715e+02 -1.8843678638202940e+02 0 0 0
2096 60 2 0.0000000000000000e+00 -5.7072572592969927e+01 -1.0017917660123724e+02 -1.9340261583903640e+02 0 0 0
2099 60 2 0.0000000000000000e+00 -6.3290220029861992e+01 -1.0616129577748279e+02 -1.8794055673663462e+02 0 0 0
2086 60 2 0.0000000000000000e+00 -8.6105650726540546e+01 -9.2860779482090393e+01 -1.8833810638290640e+02 0 0 0
2097 60 1 0.0000000000000000e+00 -6.1901470176783711e+01 -9.1999106396744523e+01 -1.8937568559020994e+02 0 0 0
5436 156 3 0.0000000000000000e+00 -5.1743990423023689e+01 -8.8900873220448474e+01 -1.9106583049040250e+02 0 0 0
5452 156 4 0.0000000000000000e+00 -3.1287726168477725e+01 -8.2910979867237003e+01 -1.8723245742826626e+02 0 0 0
5451 156 4 0.0000000000000000e+00 -2.9009698539302743e+01 -9.2270966320428911e+01 -1.8716583571271840e+02 0 0 0
5438 156 4 0.0000000000000000e+00 -5.5632331239386943e+01 -6.9203594363901374e+01 -1.8757318792837572e+02 0 0 0
5437 156 4 0.0000000000000000e+00 -5.3051047630553491e+01 -7.8331400568973976e+01 -1.9163851125000340e+02 0 0 0
5453 156 4 0.0000000000000000e+00 -3.4584043405830563e+01 -7.3392781132466524e+01 -1.8773895069370022e+02 0 0 0
5454 156 4 0.0000000000000000e+00 -3.1706459335890557e+01 -6.7342712540165621e+01 -1.9475967041298242e+02 0 0 0
6174 177 4 0.0000000000000000e+00 -1.2464495223655244e+02 9.4230862860754598e+00 -1.8897660242927441e+02 0 0 0
6173 177 4 0.0000000000000000e+00 -1.3385776834552604e+02 1.2089569475271226e+01 -1.9115677315127513e+02 0 0 0
481 14 2 0.0000000000000000e+00 -4.6856182081018858e+01 1.0986928740973434e+01 -1.9717924367744959e+02 0 0 0
482 14 2 0.0000000000000000e+00 -3.8825639073388203e+01 5.8354876904544017e+00 -1.9807470089795703e+02 0 0 0
6169 177 4 0.0000000000000000e+00 -1.6768947782611306e+02 2.4486805815700261e+01 -1.8849242620689395e+02 0 0 0
6170 177 4 0.0000000000000000e+00 -1.5837078599550424e+02 2.0840610346775453e+01 -1.8866267348694561e+02 0 0 0
6171 177 3 0.0000000000000000e+00 -1.4862753212357489e+02 2.2386749630850780e+01 -1.9175842273537307e+02 0 0 0
6172 177 4 0.0000000000000000e+00 -1.3887055648664162e+02 2.0766214855525075e+01 -1.9065368379554175e+02 0 0 0
480 14 1 0.0000000000000000e+00 -4.6633589737293661e+01 1.9017977512226338e+01 -1.9181378068774939e+02 0 0 0
6168 177 4 0.0000000000000000e+00 -1.7498195008865758e+02 3.0144486521626796e+01 -1.8549613430594422e+02 0 0 0
4758 136 4 0.0000000000000000e+00 -5.0497714624099466e+01 3.0173044333501039e+01 -1.9217049335088055e+02 0 0 0
4757 136 3 0.0000000000000000e+00 -4.2807335306446518e+01 2.8271736990677304e+01 -1.9780237577690102e+02 0 0 0
479 14 2 0.0000000000000000e+00 -4.2424079583913176e+01 2.5973776248834582e+01 -1.8566610049565031e+02 0 0 0
595 17 2 0.0000000000000000e+00 -1.5444890431322818e+02 4.8071628183770301e+01 -1.9380815856112451e+02 0 0 0
6203 178 4 0.0000000000000000e+00 -1.0076685042807888e+02 4.7711379526691758e+01 -1.9112942783806230e+02 0 0 0
477 14 2 0.0000000000000000e+00 -3.4380803689972176e+01 4.0143916704097023e+01 -1.8931861537493867e+02 0 0 0
476 14 2 0.0000000000000000e+00 -3.5728112723418207e+01 4.2962115936401545e+01 -1.9850560233338368e+02 0 0 0
6330 181 4 0.0000000000000000e+00 -9.1263485871218791e+01 -1.1311460434657300e+02 -1.7518851134848495e+02 0 0 0
2090 60 1 0.0000000000000000e+00 -7.2981451540708591e+01 -1.2028668262656936e+02 -1.7502500996076873e+02 0 0 0
2089 60 2 0.0000000000000000e+00 -7.2289858042238478e+01 -1.1573839268921155e+02 -1.8488191883690214e+02 0 0 0
2087 60 2 0.0000000000000000e+00 -8.0781897592366747e+01 -1.0117953680297654e+02 -1.8454725320584055e+02 0 0 0
2094 60 2 0.0000000000000000e+00 -5.8251681186592300e+01 -1.0660449727643500e+02 -1.7574135253261457e+02 0 0 0
2098 60 2 0.0000000000000000e+00 -6.0434377754179984e+01 -9.8921371269377488e+01 -1.8236252064697223e+02 0 0 0
2095 60 2 0.0000000000000000e+00 -5.3993168093467261e+01 -1.0521718422413846e+02 -1.8505847027598881e+02 0 0 0
2085 60 2 0.0000000000000000e+00 -9.3121806855970377e+01 -8.7495722638722484e+01 -1.8320953353591219e+02 0 0 0
5434 156 4 0.0000000000000000e+00 -6.1365440679510058e+01 -8.9134936885771552e+01 -1.7462342825466195e+02 0 0 0
5435 156 4 0.0000000000000000e+00 -5.4480539978918522e+01 -9.0064866152045752e+01 -1.8177876548258268e+02 0 0 0
2084 60 2 0.0000000000000000e+00 -8.9158297958434844e+01 -8.1015963136121783e+01 -1.7730800661548747e+02 0 0 0
2081 60 2 0.0000000000000000e+00 -7.9218999595639772e+01 -6.1444657332926475e+01 -1.7768518644903392e+02 0 0 0
5439 156 4 0.0000000000000000e+00 -5.1922305146510304e+01 -6.2387271582153303e+01 -1.8165317044798536e+02 0 0 0
5440 156 4 0.0000000000000000e+00 -4.6706934436136471e+01 -6.0953930206806348e+01 -1.7372272754629162e+02 0 0 0
2080 60 2 0.0000000000000000e+00 -8.0183793406706087e+01 -5.1726082082710832e+01 -1.7526718585366510e+02 0 0 0
2079 60 2 0.0000000000000000e+00 -7.4434925096436999e+01 -4.4378794974508118e+01 -1.8027727099241238e+02 0 0 0
2078 60 2 0.0000000000000000e+00 -6.5147651419392716e+01 -4.0977893048315472e+01 -1.8367218570973998e+02 0 0 0
2077 60 2 0.0000000000000000e+00 -5.6902682358693582e+01 -3.5447693811044928e+01 -1.8133520327616014e+02 0 0 0
2076 60 1 0.0000000000000000e+00 -5.0743644679915590e+01 -3.0236230014377742e+01 -1.7583005347201856e+02 0 0 0
6189 177 4 0.0000000000000000e+00 -1.9379933746548900e+02 -1.8646358212991210e+01 -1.8338996828803911e+02 0 0 0
6188 177 4 0.0000000000000000e+00 -1.8659764758126676e+02 -1.5877303636831815e+01 -1.7656297285781940e+02 0 0 0
6191 177 4 0.0000000000000000e+00 -2.0375473218366349e+02 -5.6446363790671965e+00 -1.7365481927251466e+02 0 0 0
6190 177 4 0.0000000000000000e+00 -2.0098370718342784e+02 -1.1975937106535277e+01 -1.8104049048090201e+02 0 0 0
1722 50 2 0.0000000000000000e+00 -1.8828358171041356e+02 1.1526267412572597e+01 -1.7323400079432150e+02 0 0 0
6175 177 4 0.0000000000000000e+00 -1.2376431257399383e+02 8.6713288505539285e+00 -1.7935998754858704e+02 0 0 0
6176 177 4 0.0000000000000000e+00 -1.2913011729738133e+02 4.2124846951973831e+00 -1.7223450249568660e+02 0 0 0
1723 50 2 0.0000000000000000e+00 -1.8064518871163105e+02 1.6958262003731207e+01 -1.7609170977681944e+02 0 0 0
5097 146 4 0.0000000000000000e+00 -3.8155359398247882e+01 1.8725561757510597e+01 -1.7201529194091816e+02 0 0 0
5098 146 4 0.0000000000000000e+00 -3.3093555588172698e+01 1.7126584125871975e+01 -1.8136530857596750e+02 0 0 0
6167 177 4 0.0000000000000000e+00 -1.7806770880010637e+02 3.8119520707021721e+01 -1.8037264210448038e+02 0 0 0
6023 173 4 0.0000000000000000e+00 -6.8808846570608182e+01 3.7648637870507301e+01 -1.7398477400330108e+02 0 0 0
6208 178 4 0.0000000000000000e+00 -7.9924060920105248e+01 3.8715059030996073e+01 -1.8147843626573982e+02 0 0 0
4760 136 4 0.0000000000000000e+00 -5.8709110672492109e+01 3.0792385933525591e+01 -1.7425805243954363e+02 0 0 0
4759 136 4 0.0000000000000000e+00 -5.3952128951416363e+01 3.0247799269712161e+01 -1.8226896893547260e+02 0 0 0
478 14 2 0.0000000000000000e+00 -3.7231524805513438e+01 3.3947496727219665e+01 -1.8285215656010661e+02 0 0 0
6166 177 4 0.0000000000000000e+00 -1.7771892998062330e+02 4.8553373642529301e+01 -1.7982960026400198e+02 0 0 0
575 17 2 0.0000000000000000e+00 -1.1056584923066931e+02 4.6667113683439325e+01 -1.8543727825311350e+02 0 0 0
574 17 2 0.0000000000000000e+00 -1.1223052908165072e+02 4.6318429239770566e+01 -1.7522059803880097e+02 0 0 0
6204 178 4 0.0000000000000000e+00 -9.7505524799499312e+01 5.1169534822703341e+01 -1.8183414703073245e+02 0 0 0
6206 178 3 0.0000000000000000e+00 -9.8092767180212078e+01 4.3182505312160252e+01 -1.7431853949382779e+02 0 0 0
6205 178 4 0.0000000000000000e+00 -1.0233664754502084e+02 5.2092234452385881e+01 -1.7288134510112656e+02 0 0 0
6207 178 4 0.0000000000000000e+00 -8.9590317903446049e+01 4.0151793434134994e+01 -1.7919615188447347e+02 0 0 0
6209 178 4 0.0000000000000000e+00 -7.3534759412152553e+01 4.6027019306158913e+01 -1.8372647830361990e+02 0 0 0
6024 173 3 0.0000000000000000e+00 -5.9573376775259540e+01 4.1217335806436083e+01 -1.7486004692861641e+02 0 0 0
6025 173 4 0.0000000000000000e+00 -4.9708988070184837e+01 4.2841140336811414e+01 -1.7587830693032416e+02 0 0 0
6026 173 4 0.0000000000000000e+00 -4.0358511760039448e+01 4.2780690438023882e+01 -1.7794868635100303e+02 0 0 0
6027 173 4 0.0000000000000000e+00 -3.0944834836640695e+01 4.3200075780274659e+01 -1.7465479919890151e+02 0 0 0
6327 181 4 0.0000000000000000e+00 -9.9627711877425142e+01 -1.3616212524826270e+02 -1.6183415889454307e+02 0 0 0
6328 181 4 0.0000000000000000e+00 -9.7480268594201206e+01 -1.2606983909296807e+02 -1.6207745228686292e+02 0 0 0
6322 181 4 0.0000000000000000e+00 -8.0225361211939585e+01 -1.2965439784265007e+02 -1.6170533244465281e+02 0 0 0
6321 181 4 0.0000000000000000e+00 -7.0773680671252791e+01 -1.2756233100580793e+02 -1.5810684331384022e+02 0 0 0
6257 179 4 0.0000000000000000e+00 -1.2990777626233583e+02 -1.1181396600924140e+02 -1.6294320034952406e+02 0 0 0
6329 181 4 0.0000000000000000e+00 -9.5074674056515420e+01 -1.1821913601174316e+02 -1.6726839254390310e+02 0 0 0
6331 181 4 0.0000000000000000e+00 -8.2478408950376107e+01 -1.1576551596601476e+02 -1.7123357345444481e+02 0 0 0
6332 181 3 0.0000000000000000e+00 -7.4716962378103077e+01 -1.1583472320543264e+02 -1.6499382479598762e+02 0 0 0
2091 60 2 0.0000000000000000e+00 -6.5289188397458759e+01 -1.1969830406792362e+02 -1.6826041472078563e+02 0 0 0
2092 60 2 0.0000000000000000e+00 -5.8558611368830292e+01 -1.1452409913658560e+02 -1.6361487346482949e+02 0 0 0
2093 60 2 0.0000000000000000e+00 -5.1896213838184941e+01 -1.0910770561487041e+02 -1.6860086267006565e+02 0 0 0
6259 179 4 0.0000000000000000e+00 -1.3814175902690863e+02 -1.0019754737255754e+02 -1.6169791647017655e+02 0 0 0
6258 179 4 0.0000000000000000e+00 -1.3582652696346847e+02 -1.0670373728809381e+02 -1.6921551218571682e+02 0 0 0
6256 179 4 0.0000000000000000e+00 -1.2277976742556420e+02 -1.0601362173989308e+02 -1.5941006706514318e+02 0 0 0
6334 181 4 0.0000000000000000e+00 -7.1803826141912779e+01 -1.0810723423343359e+02 -1.5834609960530304e+02 0 0 0
6335 181 4 0.0000000000000000e+00 -6.4241975157945873e+01 -1.0596779539561241e+02 -1.6460464879816618e+02 0 0 0
5432 156 4 0.0000000000000000e+00 -7.8080803069169875e+01 -9.1646492664154408e+01 -1.6363490172705121e+02 0 0 0
5433 156 4 0.0000000000000000e+00 -7.0951616195249983e+01 -9.0065068174882597e+01 -1.7130178800612035e+02 0 0 0
2083 60 1 0.0000000000000000e+00 -9.0065480532849989e+01 -7.3450461547942083e+01 -1.7044973206080795e+02 0 0 0
2082 60 2 0.0000000000000000e+00 -8.1984495977588196e+01 -6.7549810701491026e+01 -1.7121748083025551e+02 0 0 0
5441 156 4 0.0000000000000000e+00 -3.7595554120010284e+01 -5.8652917290269940e+01 -1.6955792102493123e+02 0 0 0
5442 156 4 0.0000000000000000e+00 -2.8502740165199235e+01 -5.9809169154461188e+01 -1.6518891347811095e+02 0 0 0
2075 60 2 0.0000000000000000e+00 -4.2067667281940004e+01 -3.0921878147968005e+01 -1.7037092872082695e+02 0 0 0
2074 60 2 0.0000000000000000e+00 -3.3261631372897170e+01 -3.1879706474636311e+01 -1.6529003881595403e+02 0 0 0
6187 177 4 0.0000000000000000e+00 -1.9008272072890796e+02 -2.0460224353073354e+01 -1.6769404041676435e+02 0 0 0
6186 177 4 0.0000000000000000e+00 -1.8547314452704890e+02 -2.1810914542621397e+01 -1.5879157637320398e+02 0 0 0
2924 84 2 0.0000000000000000e+00 -1.6384441539566362e+02 -2.5470869227922620e+01 -1.6057727201607187e+02 0 0 0
6538 187 4 0.0000000000000000e+00 -7.9377536161502960e+01 -2.7544772588266000e+01 -1.6040442139188491e+02 0 0 0
6537 187 4 0.0000000000000000e+00 -7.1057627468550535e+01 -2.3088724428991142e+01 -1.6085358866959569e+02 0 0 0
6536 187 4 0.0000000000000000e+00 -6.2228281265842966e+01 -2.3882370970465121e+01 -1.6451852478118880e+02 0 0 0
6535 187 3 0.0000000000000000e+00 -5.2598323402697446e+01 -2.6474870733002064e+01 -1.6555191411094941e+02 0 0 0
6534 187 4 0.0000000000000000e+00 -4.4455230153408394e+01 -2.2327209061602112e+01 -1.6037862016427187e+02 0 0 0
1716 50 2 0.0000000000000000e+00 -2.4140705398336473e+02 -2.0407393773390194e+00 -1.6398686632734567e+02 0 0 0
6192 177 3 0.0000000000000000e+00 -2.0467289844774618e+02 -5.3334404877337622e+00 -1.6401037644052613e+02 0 0 0
6184 177 4 0.0000000000000000e+00 -1.7720680984417996e+02 -6.3234904460974306e+00 -1.5886915575876395e+02 0 0 0
6183 177 4 0.0000000000000000e+00 -1.6830352270267642e+02 -1.9136250308613825e+00 -1.6113406572577907e+02 0 0 0
2920 84 2 0.0000000000000000e+00 -1.4835785475108190e+02 -1.1796854296063305e+01 -1.5848946527847986e+02 0 0 0
6544 187 4 0.0000000000000000e+00 -1.1106455771733864e+02 -1.2239486787360583e+01 -1.6185138289747434e+02 0 0 0
6545 187 4 0.0000000000000000e+00 -1.0575741157860196e+02 -5.3357492545108594e+00 -1.6654129456566142e+02 0 0 0
5094 146 4 0.0000000000000000e+00 -3.2787004104183794e+01 -5.1987568796412376e+00 -1.6198219114197826e+02 0 0 0
1717 50 2 0.0000000000000000e+00 -2.3188288327304613e+02 -1.1801337165423260e+00 -1.6050003118273290e+02 0 0 0
1718 50 2 0.0000000000000000e+00 -2.2264798240331021e+02 1.3612948834233238e+00 -1.6344092124943765e+02 0 0 0
1719 50 1 0.0000000000000000e+00 -2.1249069261660992e+02 2.2639793900612180e+00 -1.6632544872042769e+02 0 0 0
1720 50 2 0.0000000000000000e+00 -2.0424307826698080e+02 4.5751493432772996e+00 -1.7061253513913005e+02 0 0 0
1721 50 2 0.0000000000000000e+00 -1.9436796207905542e+02 4.1716953782968060e+00 -1.7042836955960254e+02 0 0 0
6182 177 4 0.0000000000000000e+00 -1.6358959925361830e+02 6.8308051575252726e+00 -1.6381028841009791e+02 0 0 0
6177 177 4 0.0000000000000000e+00 -1.3219740966728378e+02 2.4818718409262859e+00 -1.6292565118851800e+02 0 0 0
2492 72 2 0.0000000000000000e+00 -1.1802141715092951e+02 9.5119096184544780e+00 -1.5952890316010291e+02 0 0 0
5096 146 4 0.0000000000000000e+00 -4.0452901385335984e+01 1.1664660768768924e+01 -1.6548887574492613e+02 0 0 0
5095 146 4 0.0000000000000000e+00 -4.0013774218208646e+01 1.9350056504637181e+00 -1.6402180916686009e+02 0 0 0
1724 50 2 0.0000000000000000e+00 -1.7705398731645079e+02 2.0821709884806378e+01 -1.6805170006832893e+02 0 0 0
1725 50 2 0.0000000000000000e+00 -1.7173796887707525e+02 2.3154574387373295e+01 -1.5978313884015427e+02 0 0 0
6181 177 4 0.0000000000000000e+00 -1.5910855136600429e+02 1.5196658497535728e+01 -1.6625221732545040e+02 0 0 0
6180 177 4 0.0000000000000000e+00 -1.5109467752225558e+02 1.7171879017362258e+01 -1.6028127007043557e+02 0 0 0
3743 107 4 0.0000000000000000e+00 -1.8064416345798981e+02 3.2864979629454602e+01 -1.5949603488155168e+02 0 0 0
3744 107 4 0.0000000000000000e+00 -1.7893446947704200e+02 4.0619479279276028e+01 -1.6596483913779323e+02 0 0 0
3745 107 4 0.0000000000000000e+00 -1.7359417925270404e+02 4.9198348856962639e+01 -1.6736011497218820e+02 0 0 0
573 17 2 0.0000000000000000e+00 -1.0991127916896640e+02 4.5886817440885785e+01 -1.6569561424075977e+02 0 0 0
572 17 2 0.0000000000000000e+00 -1.0105853390808016e+02 4.1230385056870880e+01 -1.6386988356192501e+02 0 0 0
570 17 2 0.0000000000000000e+00 -8.2766024918005314e+01 4.1189245699253760e+01 -1.6058425877714637e+02 0 0 0
571 17 1 0.0000000000000000e+00 -9.1267756552665659e+01 4.1610621761772435e+01 -1.6650067645382279e+02 0 0 0
6022 173 4 0.0000000000000000e+00 -7.2057857834975252e+01 4.4492348070990694e+01 -1.6795430816703174e+02 0 0 0
569 17 2 0.0000000000000000e+00 -7.4559364785274212e+01 4.5666684810207215e+01 -1.5849843504690253e+02 0 0 0
6021 173 4 0.0000000000000000e+00 -7.8316781254493577e+01 5.1191469762953638e+01 -1.6511935921302043e+02 0 0 0
2816 81 2 0.0000000000000000e+00 -1.5443171690170925e+02 -1.3763894966117479e+02 -1.4623580994503817e+02 0 0 0
2815 81 2 0.0000000000000000e+00 -1.5594319637936039e+02 -1.3146636641588091e+02 -1.5368797622559484e+02 0 0 0
6326 181 4 0.0000000000000000e+00 -9.8285873856043210e+01 -1.3331016614059203e+02 -1.5289642337758229e+02 0 0 0
6324 181 4 0.0000000000000000e+00 -8.7269352961181227e+01 -1.3050545311585830e+02 -1.4476714972101530e+02 0 0 0
6323 181 4 0.0000000000000000e+00 -8.0315992941775065e+01 -1.3024012381562105e+02 -1.5197885389703430e+02 0 0 0
2814 81 2 0.0000000000000000e+00 -1.5865645752087232e+02 -1.2111267194876633e+02 -1.5183168746918611e+02 0 0 0
2813 81 2 0.0000000000000000e+00 -1.5818737148410514e+02 -1.1251702743252575e+02 -1.4654060852622692e+02 0 0 0
6254 179 4 0.0000000000000000e+00 -1.1692145176968798e+02 -1.1570880819280958e+02 -1.4857042288489228e+02 0 0 0
6333 181 4 0.0000000000000000e+00 -7.4716146616458659e+01 -1.1634115954983562e+02 -1.5460443077319013e+02 0 0 0
6320 181 4 0.0000000000000000e+00 -6.4731807311475848e+01 -1.2243652307951415e+02 -1.5314603406206342e+02 0 0 0
6319 181 4 0.0000000000000000e+00 -6.1709125157423003e+01 -1.1590687377452294e+02 -1.4628840493339817e+02 0 0 0
2812 81 2 0.0000000000000000e+00 -1.5096139058057906e+02 -1.0618622291497847e+02 -1.4956434213612818e+02 0 0 0
2811 81 1 0.0000000000000000e+00 -1.4397753713030855e+02 -1.0017803872678778e+02 -1.4689696013107664e+02 0 0 0
6255 179 3 0.0000000000000000e+00 -1.1992358134960563e+02 -1.0638305238663214e+02 -1.4980665874240563e+02 0 0 0
1612 47 2 0.0000000000000000e+00 -3.8785866551829869e+01 -1.0186818193318149e+02 -1.4524895052247552e+02 0 0 0
6261 179 4 0.0000000000000000e+00 -1.5113315854249512e+02 -9.1341383717864744e+01 -1.4995512086955119e+02 0 0 0
6260 179 4 0.0000000000000000e+00 -1.4566003464637043e+02 -9.5614998518031101e+01 -1.5748582660588738e+02 0 0 0
5431 156 4 0.0000000000000000e+00 -7.5776384126603247e+01 -9.3873591321345828e+01 -1.5449032624507979e+02 0 0 0
5532 159 4 0.0000000000000000e+00 -2.8329236056530313e+01 -5.3718304851669451e+01 -1.5484071138775005e+02 0 0 0
5533 159 4 0.0000000000000000e+00 -3.2880644165450818e+01 -5.2842997522105051e+01 -1.4597763804493968e+02 0 0 0
6542 187 3 0.0000000000000000e+00 -1.1198146093406014e+02 -3.0153200928255714e+01 -1.5557546857441730e+02 0 0 0
6541 187 4 0.0000000000000000e+00 -1.0527242230512097e+02 -3.6016689583485309e+01 -1.5084621832489617e+02 0 0 0
6540 187 4 0.0000000000000000e+00 -9.5744661298265854e+01 -3.6264039949855388e+01 -1.5511176138738693e+02 0 0 0
6539 187 4 0.0000000000000000e+00 -8.7526796328422762e+01 -3.1202681707529042e+01 -1.5674019893617742e+02 0 0 0
2923 84 1 0.0000000000000000e+00 -1.7064902188371431e+02 -2.0598944711180152e+01 -1.5557474488737591e+02 0 0 0
2925 84 2 0.0000000000000000e+00 -1.5516801409537484e+02 -2.4906394107939672e+01 -1.5448320973581778e+02 0 0 0
2926 84 2 0.0000000000000000e+00 -1.4617142097792646e+02 -2.1636505298729460e+01 -1.5134512735615175e+02 0 0 0
2927 84 2 0.0000000000000000e+00 -1.3669223851520411e+02 -2.2282407963705900e+01 -1.5003467839269581e+02 0 0 0
2928 84 2 0.0000000000000000e+00 -1.2829878447099031e+02 -1.7169630150171781e+01 -1.4766132578586866e+02 0 0 0
6543 187 4 0.0000000000000000e+00 -1.1162962593456230e+02 -2.0338739853540364e+01 -1.5514954922230922e+02 0 0 0
2929 84 2 0.0000000000000000e+00 -1.1824014344314408e+02 -1.6921082538422315e+01 -1.4568403423286480e+02 0 0 0
2930 84 1 0.0000000000000000e+00 -1.1075714612617064e+02 -2.3217276096003634e+01 -1.4643800594237376e+02 0 0 0
6533 187 4 0.0000000000000000e+00 -4.2954318982008758e+01 -1.5934330039368923e+01 -1.5245804625586965e+02 0 0 0
6193 177 4 0.0000000000000000e+00 -2.0456950654736644e+02 -5.1615374491407069e+00 -1.5444691628520991e+02 0 0 0
6194 177 4 0.0000000000000000e+00 -2.0980722233503553e+02 -5.5623029927309595e+00 -1.4628996547691008e+02 0 0 0
6185 177 3 0.0000000000000000e+00 -1.8009844630743476e+02 -1.4571609594961254e+01 -1.5447366510827567e+02 0 0 0
2922 84 2 0.0000000000000000e+00 -1.6681867956913297e+02 -1.1153086179641734e+01 -1.5345181358034037e+02 0 0 0
2921 84 2 0.0000000000000000e+00 -1.5772954477043777e+02 -8.1882386287326447e+00 -1.5757578206528456e+02 0 0 0
2487 72 2 0.0000000000000000e+00 -1.5886672533560065e+02 -6.1548238002978968e+00 -1.4628376103697599e+02 0 0 0
2486 72 2 0.0000000000000000e+00 -1.5369432188948838e+02 -1.4049204748347252e+01 -1.4483888811232899e+02 0 0 0
2919 84 2 0.0000000000000000e+00 -1.3858868872142082e+02 -1.1418185578324723e+01 -1.5657342770950515e+02 0 0 0
2489 72 1 0.0000000000000000e+00 -1.4223236280743063e+02 -1.7954057647395714e+00 -1.5089540008487489e+02 0 0 0
2918 84 2 0.0000000000000000e+00 -1.3596498316781120e+02 -8.7251486893385550e+00 -1.4750921493676154e+02 0 0 0
6532 187 4 0.0000000000000000e+00 -4.2190423348071043e+01 -6.8133038483454609e+00 -1.4906706367102274e+02 0 0 0
1751 51 2 0.0000000000000000e+00 -3.0630400545018222e+01 -2.8851279036800284e+00 -1.4764796621544281e+02 0 0 0
1769 51 2 0.0000000000000000e+00 -3.2794979754699852e+01 -1.3607767994642854e+01 -1.4564799272425657e+02 0 0 0
5902 169 4 0.0000000000000000e+00 -1.5189514152330949e+02 6.8037387279466213e+00 -1.4790647227165800e+02 0 0 0
6178 177 3 0.0000000000000000e+00 -1.3728055282766877e+02 7.5409765924571532e+00 -1.5575274662657117e+02 0 0 0
6179 177 4 0.0000000000000000e+00 -1.4634019630287790e+02 1.1531705546927190e+01 -1.5408968923046174e+02 0 0 0
2490 72 2 0.0000000000000000e+00 -1.3274154716743939e+02 6.9380005772174902e-01 -1.5014570498529287e+02 0 0 0
2491 72 2 0.0000000000000000e+00 -1.2676215383468167e+02 6.2839207658650222e+00 -1.5639225866405638e+02 0 0 0
5910 169 4 0.0000000000000000e+00 -9.4798514608922630e+01 7.6129955577701720e+00 -1.4580026118471352e+02 0 0 0
3741 107 4 0.0000000000000000e+00 -1.7643119862613088e+02 1.9677214772985593e+01 -1.4545807442938624e+02 0 0 0
5901 169 4 0.0000000000000000e+00 -1.5808475794583359e+02 1.4028737918240454e+01 -1.4449137322959098e+02 0 0 0
2493 72 2 0.0000000000000000e+00 -1.1140583227832160e+02 1.4814891234632990e+01 -1.5442189703912473e+02 0 0 0
2494 72 2 0.0000000000000000e+00 -1.0765637447698569e+02 1.8272688389717395e+01 -1.4620790598753669e+02 0 0 0
5911 169 4 0.0000000000000000e+00 -9.4318116250686742e+01 1.5607321228134893e+01 -1.5240860928233607e+02 0 0 0
3742 107 3 0.0000000000000000e+00 -1.7712344272630210e+02 2.7195982170724331e+01 -1.5124970701323818e+02 0 0 0
1726 50 1 0.0000000000000000e+00 -1.6666466801177583e+02 2.5760824886750211e+01 -1.5207558484316004e+02 0 0 0
5912 169 3 0.0000000000000000e+00 -9.4622864256319104e+01 2.6085926487763636e+01 -1.5131411559616501e+02 0 0 0
5913 169 4 0.0000000000000000e+00 -8.7758298041559243e+01 3.3070970714148942e+01 -1.5192940389976496e+02 0 0 0
5914 169 4 0.0000000000000000e+00 -8.4342325067995759e+01 4.1289641434566626e+01 -1.4728125307135369e+02 0 0 0
5915 169 4 0.0000000000000000e+00 -7.7729121981677196e+01 4.8619535405078295e+01 -1.4581250155643770e+02 0 0 0
568 17 2 0.0000000000000000e+00 -6.8574084732938744e+01 5.2627559949554694e+01 -1.5391855367580138e+02 0 0 0
2817 81 2 0.0000000000000000e+00 -1.4988464608815923e+02 -1.4346801443243149e+02 -1.3937334650786198e+02 0 0 0
6251 179 4 0.0000000000000000e+00 -1.2739104159080981e+02 -1.3549380859038652e+02 -1.3505349573676321e+02 0 0 0
6252 179 4 0.0000000000000000e+00 -1.2011705574754366e+02 -1.3159711746838514e+02 -1.4071163293529298e+02 0 0 0
6253 179 4 0.0000000000000000e+00 -1.1387130544736858e+02 -1.2401125534363156e+02 -1.4278414983122178e+02 0 0 0
6325 181 3 0.0000000000000000e+00 -9.6663959614584101e+01 -1.2796055468114187e+02 -1.4408636945179572e+02 0 0 0
1366 40 2 0.0000000000000000e+00 -8.3605488694412557e+01 -1.2837311642516460e+02 -1.3156858667738882e+02 0 0 0
1369 40 1 0.0000000000000000e+00 -5.7122042926351035e+01 -1.2511608532046763e+02 -1.3976160969295120e+02 0 0 0
1368 40 2 0.0000000000000000e+00 -6.4933720902562243e+01 -1.2851183812964371e+02 -1.3454240140776432e+02 0 0 0
1616 47 2 0.0000000000000000e+00 -4.2656091507999811e+01 -1.3171820402056989e+02 -1.3103603511267170e+02 0 0 0
1615 47 2 0.0000000000000000e+00 -3.6549885795193667e+01 -1.2500230617940693e+02 -1.3415919050822993e+02 0 0 0
2835 81 2 0.0000000000000000e+00 -9.7799503270353725e+01 -1.2010058802616709e+02 -1.3357310334319257e+02 0 0 0
5426 156 4 0.0000000000000000e+00 -7.4047195335036605e+01 -1.2249656261208358e+02 -1.3936564974664856e+02 0 0 0
5427 156 4 0.0000000000000000e+00 -7.5215471582272272e+01 -1.1306387289145729e+02 -1.4271726220243531e+02 0 0 0
1370 40 2 0.0000000000000000e+00 -6.1711237954525274e+01 -1.1727636622761952e+02 -1.3637033006877328e+02 0 0 0
6318 181 3 0.0000000000000000e+00 -5.2794515743430814e+01 -1.1520725107948017e+02 -1.4270809987623295e+02 0 0 0
6317 181 4 0.0000000000000000e+00 -5.0073968858627040e+01 -1.1929504682592997e+02 -1.3458195614672275e+02 0 0 0
1614 47 1 0.0000000000000000e+00 -3.0505036114933894e+01 -1.1750666786475227e+02 -1.3738483971165419e+02 0 0 0
1613 47 2 0.0000000000000000e+00 -3.2940145264849569e+01 -1.1024964935298718e+02 -1.4360532263524311e+02 0 0 0
6264 179 4 0.0000000000000000e+00 -1.4000898609937559e+02 -1.0572934763270850e+02 -1.3170253874903580e+02 0 0 0
6263 179 4 0.0000000000000000e+00 -1.4612398255523112e+02 -9.8686961528425968e+01 -1.3480595858722916e+02 0 0 0
5428 156 4 0.0000000000000000e+00 -7.0041088348259535e+01 -1.0793883927478480e+02 -1.3659146734609487e+02 0 0 0
5429 156 3 0.0000000000000000e+00 -7.5510388184035847e+01 -9.9968266630661958e+01 -1.3654195792268459e+02 0 0 0
1371 40 2 0.0000000000000000e+00 -5.9667007581732676e+01 -1.0791517960359509e+02 -1.3448460715409198e+02 0 0 0
1372 40 2 0.0000000000000000e+00 -6.2095288528957312e+01 -9.8599141870438558e+01 -1.3083713655674129e+02 0 0 0
6262 179 3 0.0000000000000000e+00 -1.5232647648029200e+02 -9.5236560309621879e+01 -1.4097801441625174e+02 0 0 0
2810 81 2 0.0000000000000000e+00 -1.3809457353511888e+02 -9.3549649363843471e+01 -1.4213349499394738e+02 0 0 0
2809 81 2 0.0000000000000000e+00 -1.3348570432004473e+02 -8.6804425464975935e+01 -1.3709596607272343e+02 0 0 0
5430 156 4 0.0000000000000000e+00 -7.6651954596264503e+01 -9.3843921118699399e+01 -1.4441647297540405e+02 0 0 0
1611 47 2 0.0000000000000000e+00 -4.5052303996869099e+01 -9.4363638049404216e+01 -1.4272829227701109e+02 0 0 0
2808 81 2 0.0000000000000000e+00 -1.2895402127157541e+02 -7.8900657454681721e+01 -1.3364647366061396e+02 0 0 0
1624 47 2 0.0000000000000000e+00 -7.0394726233302649e+01 -7.8507765671954829e+01 -1.3447328255669311e+02 0 0 0
1625 47 2 0.0000000000000000e+00 -6.0507521305229375e+01 -7.6992432854252797e+01 -1.3435077682279473e+02 0 0 0
1626 47 2 0.0000000000000000e+00 -6.0572782381055184e+01 -6.7395721378693580e+01 -1.3244822034673584e+02 0 0 0
5535 159 4 0.0000000000000000e+00 -5.1766073813271788e+01 -5.7024173884757481e+01 -1.4074906761994799e+02 0 0 0
1627 47 2 0.0000000000000000e+00 -5.3781845233682446e+01 -6.0454449039317005e+01 -1.3250801378031028e+02 0 0 0
2523 73 2 0.0000000000000000e+00 -1.1358378239228357e+02 -5.1924788317369590e+01 -1.3610733431232106e+02 0 0 0
2521 73 2 0.0000000000000000e+00 -9.6096924891473691e+01 -4.9698344617415373e+01 -1.4327711011797774e+02 0 0 0
2522 73 2 0.0000000000000000e+00 -1.0508787065173655e+02 -4.8165583750737433e+01 -1.3943247191944127e+02 0 0 0
5537 159 4 0.0000000000000000e+00 -6.8202253987948865e+01 -5.0638413597036681e+01 -1.3394686534964268e+02 0 0 0
5536 159 4 0.0000000000000000e+00 -6.0472193483325327e+01 -5.2835745463670882e+01 -1.4002690666672484e+02 0 0 0
5534 159 3 0.0000000000000000e+00 -4.2215172984617460e+01 -5.3750306586252734e+01 -1.4247874106107244e+02 0 0 0
1530 44 1 0.0000000000000000e+00 -4.9308053764040402e+01 -4.7772840154020159e+01 -1.3666527815246758e+02 0 0 0
1629 47 2 0.0000000000000000e+00 -3.7832604359911748e+01 -4.9736933444330461e+01 -1.3104648742170227e+02 0 0 0
1630 47 2 0.0000000000000000e+00 -3.0120007810312661e+01 -4.5085271109813540e+01 -1.3596265636865681e+02 0 0 0
2541 73 2 0.0000000000000000e+00 -1.6402865321224485e+02 -4.0633477271152188e+01 -1.3113535726976212e+02 0 0 0
2540 73 2 0.0000000000000000e+00 -1.5985408221273957e+02 -3.8649498138989195e+01 -1.4019521203437179e+02 0 0 0
2539 73 2 0.0000000000000000e+00 -1.5376199740994485e+02 -3.1383054014194496e+01 -1.3679415879520869e+02 0 0 0
2932 84 2 0.0000000000000000e+00 -9.4716576497444663e+01 -3.0208024997795771e+01 -1.3705607338654218e+02 0 0 0
6511 187 4 0.0000000000000000e+00 -6.2258347384014527e+01 -3.6611116035586086e+01 -1.3217360790187371e+02 0 0 0
1531 44 2 0.0000000000000000e+00 -4.5878510619272419e+01 -3.8159974064206359e+01 -1.3872594258007271e+02 0 0 0
1532 44 2 0.0000000000000000e+00 -4.4335678121398203e+01 -3.0701062990731884e+01 -1.3154017107567580e+02 0 0 0
2538 73 1 0.0000000000000000e+00 -1.5018930318497547e+02 -2.2420117098819684e+01 -1.3349104277216122e+02 0 0 0
3735 107 3 0.0000000000000000e+00 -1.6037657383523347e+02 -2.0724757484036378e+01 -1.3163231178448362e+02 0 0 0
2537 73 2 0.0000000000000000e+00 -1.4053666510044116e+02 -1.9778988905575869e+01 -1.3287243676026984e+02 0 0 0
2931 84 2 0.0000000000000000e+00 -1.0257884743570609e+02 -2.5072688681605349e+01 -1.4106488751261591e+02 0 0 0
2933 84 2 0.0000000000000000e+00 -9.7883041800718004e+01 -2.2666653714717647e+01 -1.3144851333928236e+02 0 0 0