LAMMPS data file via write_data, version 5 Jun 2019, timestep = 320000000

7000 atoms
4 atom types
7258 bonds
3 bond types
6600 angles
2 angle types

-5.0000000000000000e+02 5.0000000000000000e+02 xlo xhi
-5.0000000000000000e+02 5.0000000000000000e+02 ylo yhi
-5.0000000000000000e+02 5.0000000000000000e+02 zlo zhi

Masses

1 1000
2 1000
3 1000
4 1000

Pair Coeffs # lj/cut

1 0.178 10
2 0.178 10
3 0.178 10
4 0.178 10

Angle Coeffs # cosine

1 2
2 2

Atoms # full

5427 156 4 0.0000000000000000e+00 -8.3362166791685922e+01 -1.6204047911851458e+02 -2.3248208303150366e+02 0 0 0
5426 156 4 0.0000000000000000e+00 -7.3784235159167281e+01 -1.5980642409587787e+02 -2.3509116226335084e+02 0 0 0
2099 60 2 0.0000000000000000e+00 -6.0772938718471579e+01 -1.2454237452223636e+02 -2.3220475827912557e+02 0 0 0
2100 60 2 0.0000000000000000e+00 -6.2259256367003267e+01 -1.1796559857714783e+02 -2.4007990386445891e+02 0 0 0
6192 177 3 0.0000000000000000e+00 -1.9763717223932699e+02 7.9955670559859495e+00 -2.3148855596104465e+02 0 0 0
6193 177 4 0.0000000000000000e+00 -1.9395725017091848e+02 1.6768291883157229e+01 -2.3176801600947456e+02 0 0 0
6194 177 4 0.0000000000000000e+00 -1.8847674289879942e+02 2.4875457548336627e+01 -2.3114698973401983e+02 0 0 0
6195 177 4 0.0000000000000000e+00 -1.7839411665111317e+02 2.6687259703239480e+01 -2.3035771863469236e+02 0 0 0
5428 156 4 0.0000000000000000e+00 -8.0956425100628408e+01 -1.5429086576727130e+02 -2.2657172517562779e+02 0 0 0
5429 156 3 0.0000000000000000e+00 -7.6425780825900048e+01 -1.5731674113628557e+02 -2.1879203349598572e+02 0 0 0
2098 60 2 0.0000000000000000e+00 -5.9731925011902931e+01 -1.3010499561811002e+02 -2.2437445967917319e+02 0 0 0
2097 60 1 0.0000000000000000e+00 -5.5303827724217236e+01 -1.2534455300415047e+02 -2.1717712917872220e+02 0 0 0
1717 50 2 0.0000000000000000e+00 -2.0076406355560783e+02 -1.3298364333467619e+01 -2.2067271174149337e+02 0 0 0
1718 50 2 0.0000000000000000e+00 -1.9333160551900215e+02 -9.3089655192968248e+00 -2.2632401750405293e+02 0 0 0
6190 177 4 0.0000000000000000e+00 -2.0240466206102425e+02 -2.0494646860320676e+00 -2.2013759860817609e+02 0 0 0
1719 50 1 0.0000000000000000e+00 -1.9252970661993109e+02 1.6214341846310168e-01 -2.2502309443567304e+02 0 0 0
6191 177 4 0.0000000000000000e+00 -2.0325584714332953e+02 -1.3337950506294677e-01 -2.2945678461028217e+02 0 0 0
5431 156 4 0.0000000000000000e+00 -7.0194504516206621e+01 -1.7169951157571313e+02 -2.1047319536674857e+02 0 0 0
5432 156 4 0.0000000000000000e+00 -6.3340686253476882e+01 -1.6462224787512721e+02 -2.1418922588201218e+02 0 0 0
5430 156 4 0.0000000000000000e+00 -7.2651848066654580e+01 -1.6188378883021014e+02 -2.1075832952119109e+02 0 0 0
5433 156 4 0.0000000000000000e+00 -5.7851155042080151e+01 -1.5741803421481498e+02 -2.1040613658735853e+02 0 0 0
5434 156 4 0.0000000000000000e+00 -5.4834753229538201e+01 -1.4771617672415107e+02 -2.0812872608062719e+02 0 0 0
5435 156 4 0.0000000000000000e+00 -4.7952458752530376e+01 -1.4206427500738292e+02 -2.1308908574390415e+02 0 0 0
2096 60 2 0.0000000000000000e+00 -5.8126240976841878e+01 -1.3274059861841110e+02 -2.1041178209634626e+02 0 0 0
5436 156 3 0.0000000000000000e+00 -4.7855242149634101e+01 -1.3177875560621513e+02 -2.1282831151078099e+02 0 0 0
2093 60 2 0.0000000000000000e+00 -6.9091274506526673e+01 -1.1502436690149430e+02 -2.0417755871915710e+02 0 0 0
1716 50 2 0.0000000000000000e+00 -2.0711265368349527e+02 -1.7405033752168045e+01 -2.1435437947099692e+02 0 0 0
6189 177 4 0.0000000000000000e+00 -2.1046834729254374e+02 -4.4691699245719123e+00 -2.1420387587524647e+02 0 0 0
6188 177 4 0.0000000000000000e+00 -2.1520700638887189e+02 -8.4488340374932633e+00 -2.0578303183284766e+02 0 0 0
1720 50 2 0.0000000000000000e+00 -1.9324209219394515e+02 1.4106394263614233e+00 -2.1557792707387696e+02 0 0 0
1721 50 2 0.0000000000000000e+00 -1.9211185429692290e+02 3.7629562925601854e+00 -2.0585634261530083e+02 0 0 0
475 14 2 0.0000000000000000e+00 -5.8728173519653978e+01 2.4959212065510421e+01 -2.0339315619104616e+02 0 0 0
2493 72 2 0.0000000000000000e+00 -1.6835114204285011e+02 3.5515651234135888e+01 -2.0669102126067668e+02 0 0 0
2492 72 2 0.0000000000000000e+00 -1.7289335185442079e+02 2.7184514643635339e+01 -2.0311875673667330e+02 0 0 0
474 14 2 0.0000000000000000e+00 -5.6573112960109725e+01 3.2996719199191645e+01 -2.0876771865195690e+02 0 0 0
5913 169 4 0.0000000000000000e+00 -1.7751896714450237e+02 4.6955423318602563e+01 -2.0556276824615583e+02 0 0 0
2494 72 2 0.0000000000000000e+00 -1.6301658441880022e+02 4.4088808532518478e+01 -2.0470361045599208e+02 0 0 0
6168 177 4 0.0000000000000000e+00 -1.3461367688826252e+02 5.0682729667051383e+01 -2.0617845993242784e+02 0 0 0
6167 177 4 0.0000000000000000e+00 -1.2743281282900992e+02 4.9720514225759970e+01 -2.1308364744961682e+02 0 0 0
473 14 1 0.0000000000000000e+00 -5.2630682658586878e+01 4.0832244555864293e+01 -2.0368837359394988e+02 0 0 0
2094 60 2 0.0000000000000000e+00 -6.9001415987192715e+01 -1.2285401282849745e+02 -1.9709103251698355e+02 0 0 0
2095 60 2 0.0000000000000000e+00 -6.3194334604333150e+01 -1.2970241396875232e+02 -2.0215914712621804e+02 0 0 0
2814 81 2 0.0000000000000000e+00 -1.8085113034871421e+02 -1.0042454807262375e+02 -1.9552538319360778e+02 0 0 0
2815 81 2 0.0000000000000000e+00 -1.7494660532499711e+02 -1.0847854668496841e+02 -1.9327226711775330e+02 0 0 0
2092 60 2 0.0000000000000000e+00 -7.1036219986809954e+01 -1.0662168697020654e+02 -1.9976948877832396e+02 0 0 0
2091 60 2 0.0000000000000000e+00 -7.2260286661436183e+01 -1.0076998780915137e+02 -1.9119277152473080e+02 0 0 0
6335 181 4 0.0000000000000000e+00 -6.3339022374142402e+01 -1.0052234549881125e+02 -1.9795058196545938e+02 0 0 0
2812 81 2 0.0000000000000000e+00 -1.9059052044056733e+02 -8.6337720266440741e+01 -1.9170813953699846e+02 0 0 0
2813 81 2 0.0000000000000000e+00 -1.8935851339518578e+02 -9.4949229271023185e+01 -1.9666184997733319e+02 0 0 0
6334 181 4 0.0000000000000000e+00 -6.9101656984401473e+01 -9.3297301243509480e+01 -1.9579056240412811e+02 0 0 0
2811 81 1 0.0000000000000000e+00 -1.9320729253268991e+02 -7.7164880975851545e+01 -1.8954242314387304e+02 0 0 0
2810 81 2 0.0000000000000000e+00 -1.8784043123785784e+02 -7.4390460466464134e+01 -1.9780956379594406e+02 0 0 0
3025 87 2 0.0000000000000000e+00 -4.6320926284885424e+01 -6.8636820868265445e+01 -2.0148929258736189e+02 0 0 0
2808 81 2 0.0000000000000000e+00 -1.9129006204442371e+02 -5.8534945298396131e+01 -1.9825428295501743e+02 0 0 0
2809 81 2 0.0000000000000000e+00 -1.8397863337889632e+02 -6.5051429041483090e+01 -1.9946763761688661e+02 0 0 0
3024 87 2 0.0000000000000000e+00 -5.0622550764216129e+01 -6.1117078855501056e+01 -1.9655563584850327e+02 0 0 0
2807 81 2 0.0000000000000000e+00 -1.9480241571030746e+02 -4.9763734678817926e+01 -1.9501618517194726e+02 0 0 0
2806 81 2 0.0000000000000000e+00 -2.0120432359773687e+02 -4.3768042862860604e+01 -1.9215319901268234e+02 0 0 0
3023 87 2 0.0000000000000000e+00 -4.4609618635163500e+01 -5.3991943595586847e+01 -1.9240733117732685e+02 0 0 0
2805 81 2 0.0000000000000000e+00 -1.9878053563620904e+02 -3.4975736195164714e+01 -1.9684920812147658e+02 0 0 0
5083 146 4 0.0000000000000000e+00 -4.4800604528532020e+01 -2.7892422876906103e+01 -1.9066385153136679e+02 0 0 0
5082 146 4 0.0000000000000000e+00 -4.1994521632314303e+01 -3.7160087522038708e+01 -1.9253686081312625e+02 0 0 0
6186 177 4 0.0000000000000000e+00 -2.0804163322543539e+02 -1.9651002292691810e+01 -1.9078143368988637e+02 0 0 0
6187 177 4 0.0000000000000000e+00 -2.1139047743808987e+02 -1.4499515358053822e+01 -1.9894911050043629e+02 0 0 0
2804 81 1 0.0000000000000000e+00 -1.9785741792482111e+02 -2.5294063084079124e+01 -1.9747108313010409e+02 0 0 0
2803 81 2 0.0000000000000000e+00 -1.9565735811105935e+02 -1.6671276619938808e+01 -1.9261829498261562e+02 0 0 0
6183 177 4 0.0000000000000000e+00 -1.8663005109360304e+02 -2.0571487890169728e+01 -1.9184065181450811e+02 0 0 0
5084 146 4 0.0000000000000000e+00 -5.1554060676936878e+01 -2.0152898492852284e+01 -1.9001643183067290e+02 0 0 0
1722 50 2 0.0000000000000000e+00 -1.9030103041998311e+02 4.9569317615422586e+00 -1.9615504363593669e+02 0 0 0
477 14 2 0.0000000000000000e+00 -4.7419436968941007e+01 1.0226833468519914e+01 -1.9865325240783233e+02 0 0 0
2491 72 2 0.0000000000000000e+00 -1.7586418566616484e+02 2.4303822810849635e+01 -1.9414992909123129e+02 0 0 0
476 14 2 0.0000000000000000e+00 -5.4634415014351667e+01 1.7050264757309716e+01 -1.9998195815084384e+02 0 0 0
5911 169 4 0.0000000000000000e+00 -1.7226870130884768e+02 3.6316695238357894e+01 -1.9502651277986385e+02 0 0 0
6197 178 4 0.0000000000000000e+00 -1.0071927251069295e+02 3.4186332668460217e+01 -1.8959146049479043e+02 0 0 0
6196 178 4 0.0000000000000000e+00 -9.2757906368897679e+01 3.4528259686932628e+01 -1.9556516526056717e+02 0 0 0
485 14 2 0.0000000000000000e+00 -4.2739058140976979e+01 3.0816152277693678e+01 -1.9385141608500652e+02 0 0 0
5912 169 3 0.0000000000000000e+00 -1.8012318155988251e+02 4.1925016853300576e+01 -1.9735940611491290e+02 0 0 0
472 14 2 0.0000000000000000e+00 -4.9305247275304431e+01 4.8023381122669072e+01 -1.9772698808940868e+02 0 0 0
6250 179 4 0.0000000000000000e+00 -1.7181979477246080e+02 -1.5476165650958166e+02 -1.8205416964599860e+02 0 0 0
6251 179 4 0.0000000000000000e+00 -1.7927359653202484e+02 -1.4846134383954848e+02 -1.8121792289479498e+02 0 0 0
6252 179 4 0.0000000000000000e+00 -1.7545660747564196e+02 -1.3986892306956543e+02 -1.7975390214519510e+02 0 0 0
6254 179 4 0.0000000000000000e+00 -1.7006616719059983e+02 -1.2576246212782162e+02 -1.8936626057035204e+02 0 0 0
6253 179 4 0.0000000000000000e+00 -1.7513162420741622e+02 -1.3016173149802393e+02 -1.8108145056540786e+02 0 0 0
2818 81 1 0.0000000000000000e+00 -1.6577220901071189e+02 -1.3040986722412219e+02 -1.7874343561432346e+02 0 0 0
6255 179 3 0.0000000000000000e+00 -1.6059501882401230e+02 -1.2578898276061176e+02 -1.8780466684140023e+02 0 0 0
6256 179 4 0.0000000000000000e+00 -1.5146900996296105e+02 -1.2252304608448334e+02 -1.8692636499156529e+02 0 0 0
2817 81 2 0.0000000000000000e+00 -1.6678106834461428e+02 -1.2084294155146685e+02 -1.8038606934837728e+02 0 0 0
2816 81 2 0.0000000000000000e+00 -1.7028511993097726e+02 -1.1470061629927008e+02 -1.8703284205965662e+02 0 0 0
6257 179 4 0.0000000000000000e+00 -1.5170402770646967e+02 -1.1259583456616960e+02 -1.8780074345875909e+02 0 0 0
2626 76 2 0.0000000000000000e+00 -4.6646131191572820e+01 -1.1213764086795406e+02 -1.8354553551320780e+02 0 0 0
6259 179 4 0.0000000000000000e+00 -1.6789484681829092e+02 -1.0059300626571915e+02 -1.8577344257701961e+02 0 0 0
6258 179 4 0.0000000000000000e+00 -1.5896307060087787e+02 -1.0497059666585318e+02 -1.8670327467154382e+02 0 0 0
6261 179 4 0.0000000000000000e+00 -1.7554400640071700e+02 -8.2774987933242485e+01 -1.8892965353400282e+02 0 0 0
6260 179 4 0.0000000000000000e+00 -1.7120892789918719e+02 -9.0968802203210672e+01 -1.8485802117742747e+02 0 0 0
6332 181 3 0.0000000000000000e+00 -7.5602166495065262e+01 -9.2898557111330163e+01 -1.7968026593892023e+02 0 0 0
6333 181 4 0.0000000000000000e+00 -7.5331244896323028e+01 -8.8764635690560254e+01 -1.8878872163396753e+02 0 0 0
2090 60 1 0.0000000000000000e+00 -6.6955933192938247e+01 -9.3967564053189264e+01 -1.8611026562253986e+02 0 0 0
2089 60 2 0.0000000000000000e+00 -6.6577361053842878e+01 -8.5947040980820532e+01 -1.8022176038259414e+02 0 0 0
6262 179 3 0.0000000000000000e+00 -1.8208487292646728e+02 -7.6356615541293678e+01 -1.8697757199239365e+02 0 0 0
6263 179 4 0.0000000000000000e+00 -1.7796402919641744e+02 -6.6948732056676079e+01 -1.8462659131181948e+02 0 0 0
6264 179 4 0.0000000000000000e+00 -1.8544221655863859e+02 -6.4396417278448894e+01 -1.7907312574552230e+02 0 0 0
6184 177 4 0.0000000000000000e+00 -1.9161389101841149e+02 -2.7557347559425395e+01 -1.8710656443783489e+02 0 0 0
6185 177 3 0.0000000000000000e+00 -2.0106645913296759e+02 -2.4825547580559814e+01 -1.8632225171210916e+02 0 0 0
2802 81 2 0.0000000000000000e+00 -1.9520847684721699e+02 -1.5954648344981738e+01 -1.8244757656076308e+02 0 0 0
2801 81 2 0.0000000000000000e+00 -2.0146112206442115e+02 -2.0107828170669382e+01 -1.7624078015455868e+02 0 0 0
1641 47 2 0.0000000000000000e+00 -7.7088846309762260e+01 -2.2417800773638113e+01 -1.7973863236141548e+02 0 0 0
5085 146 4 0.0000000000000000e+00 -5.8056365210712336e+01 -1.5101294567915605e+01 -1.8451316261377406e+02 0 0 0
6182 177 4 0.0000000000000000e+00 -1.8782168758120932e+02 -1.1326620744855164e+01 -1.8923877492202362e+02 0 0 0
6181 177 4 0.0000000000000000e+00 -1.8729925433851906e+02 -1.8995265972396227e+00 -1.8616034537714532e+02 0 0 0
1642 47 1 0.0000000000000000e+00 -7.5800957588860257e+01 -1.2781933632062824e+01 -1.7956765834411155e+02 0 0 0
5086 146 3 0.0000000000000000e+00 -6.5572352078875184e+01 -1.0118723846160698e+01 -1.7891646055412011e+02 0 0 0
4745 136 4 0.0000000000000000e+00 -4.3286327238660995e+01 -1.2064475805962125e+01 -1.8934100682434041e+02 0 0 0
4746 136 4 0.0000000000000000e+00 -5.1793415125200056e+01 -6.7046372375881091e+00 -1.8704023333637238e+02 0 0 0
1723 50 2 0.0000000000000000e+00 -1.9658231269380380e+02 9.0251338502302012e+00 -1.8934418294652059e+02 0 0 0
1724 50 2 0.0000000000000000e+00 -2.0063122076344132e+02 9.0778164280525768e+00 -1.7986738457836682e+02 0 0 0
6180 177 4 0.0000000000000000e+00 -1.8674996335273016e+02 7.4233442067979105e+00 -1.8235239782871693e+02 0 0 0
6179 177 4 0.0000000000000000e+00 -1.7848282352378135e+02 1.0523049288279324e+01 -1.7719118325830630e+02 0 0 0
4747 136 4 0.0000000000000000e+00 -5.0989973819856480e+01 -2.1805244615615321e-01 -1.7901892793817404e+02 0 0 0
4748 136 4 0.0000000000000000e+00 -5.2989164243048243e+01 8.8763991107372462e+00 -1.7694957798490387e+02 0 0 0
3744 107 4 0.0000000000000000e+00 -2.0238514385542339e+02 1.8953093247502824e+01 -1.7951900474125748e+02 0 0 0
3743 107 4 0.0000000000000000e+00 -1.9257558407361006e+02 1.7008138516759391e+01 -1.7910237989323056e+02 0 0 0
2489 72 1 0.0000000000000000e+00 -1.8058365890862339e+02 2.4567914806943282e+01 -1.7884706947473632e+02 0 0 0
2490 72 2 0.0000000000000000e+00 -1.7674365783121357e+02 1.8523718039629660e+01 -1.8660501098625295e+02 0 0 0
6178 177 3 0.0000000000000000e+00 -1.7166582888304060e+02 1.8604833615370165e+01 -1.7615404909549085e+02 0 0 0
4749 136 4 0.0000000000000000e+00 -6.1875112833099578e+01 1.4496560568702161e+01 -1.7738863637767494e+02 0 0 0
487 14 1 0.0000000000000000e+00 -5.7301174094900063e+01 2.3776815930012546e+01 -1.8187455569896537e+02 0 0 0
488 14 2 0.0000000000000000e+00 -4.8100548852431082e+01 2.0638533278391382e+01 -1.8103749634805328e+02 0 0 0
3745 107 4 0.0000000000000000e+00 -2.0649515915530520e+02 2.8343979398962958e+01 -1.8089480849810556e+02 0 0 0
5910 169 4 0.0000000000000000e+00 -1.6714811073189054e+02 3.2401731253781612e+01 -1.8686036235299269e+02 0 0 0
5909 169 4 0.0000000000000000e+00 -1.6760686105574044e+02 3.8517579836732530e+01 -1.7929997000492199e+02 0 0 0
6177 177 4 0.0000000000000000e+00 -1.6684664979748388e+02 2.7115309986448462e+01 -1.7733426970143489e+02 0 0 0
2918 84 2 0.0000000000000000e+00 -1.4096337727877042e+02 3.2412436438316504e+01 -1.8055836171639055e+02 0 0 0
2919 84 2 0.0000000000000000e+00 -1.3187322883819891e+02 3.3771674840754805e+01 -1.7828250977671351e+02 0 0 0
2920 84 2 0.0000000000000000e+00 -1.2289767007610052e+02 2.8996893371933695e+01 -1.7786435350863906e+02 0 0 0
6198 178 4 0.0000000000000000e+00 -1.0518695387069226e+02 3.6164104774588466e+01 -1.8064434642295453e+02 0 0 0
486 14 2 0.0000000000000000e+00 -5.1211970775748533e+01 2.7588691521639724e+01 -1.8912552061476222e+02 0 0 0
6174 177 4 0.0000000000000000e+00 -1.5428568183415385e+02 4.9232554133276025e+01 -1.7820677530663835e+02 0 0 0
6249 179 4 0.0000000000000000e+00 -1.6510116840377580e+02 -1.5465469258574606e+02 -1.7471767073708804e+02 0 0 0
6248 179 3 0.0000000000000000e+00 -1.6994196934379895e+02 -1.5040732850841741e+02 -1.6710854646866139e+02 0 0 0
2819 81 2 0.0000000000000000e+00 -1.6771564905604271e+02 -1.3650909648911670e+02 -1.7114880536072147e+02 0 0 0
2628 76 2 0.0000000000000000e+00 -5.1864468208608628e+01 -1.1965321323459975e+02 -1.6582666755470257e+02 0 0 0
2627 76 2 0.0000000000000000e+00 -4.8394211206144483e+01 -1.1833456828977192e+02 -1.7552557752852570e+02 0 0 0
6330 181 4 0.0000000000000000e+00 -8.5633386119357951e+01 -1.0323618335156036e+02 -1.6527007670246186e+02 0 0 0
6331 181 4 0.0000000000000000e+00 -7.8564866228486494e+01 -9.8397697529428953e+01 -1.7148237818278454e+02 0 0 0
2088 60 2 0.0000000000000000e+00 -7.0860949489758781e+01 -8.0161972439245233e+01 -1.7328056242771197e+02 0 0 0
2087 60 2 0.0000000000000000e+00 -6.9081534020519982e+01 -7.3043339460728205e+01 -1.6672134384836565e+02 0 0 0
6265 179 4 0.0000000000000000e+00 -1.8665943150690154e+02 -5.9808870816380725e+01 -1.7015534801756198e+02 0 0 0
2538 73 1 0.0000000000000000e+00 -1.8886846629544337e+02 -3.3846628592431564e+01 -1.6312902151356110e+02 0 0 0
3734 107 4 0.0000000000000000e+00 -1.7204483764439777e+02 -3.2403836170266274e+01 -1.6371688276465346e+02 0 0 0
1640 47 2 0.0000000000000000e+00 -7.9370027772060155e+01 -3.0289695408440100e+01 -1.7407059268739312e+02 0 0 0
1639 47 2 0.0000000000000000e+00 -7.5027758564369933e+01 -3.3604850669629400e+01 -1.6590718009840120e+02 0 0 0
2537 73 2 0.0000000000000000e+00 -1.8261287927528772e+02 -2.5791542328757568e+01 -1.6558995964584358e+02 0 0 0
3739 107 4 0.0000000000000000e+00 -1.8523818535398127e+02 -1.5744623296428639e+01 -1.6502074900307306e+02 0 0 0
2536 73 2 0.0000000000000000e+00 -1.7559719334005516e+02 -1.9780001030936813e+01 -1.6282326048216046e+02 0 0 0
5565 159 4 0.0000000000000000e+00 -1.3460447033163581e+02 -1.7879021842566612e+01 -1.6683421409492138e+02 0 0 0
3740 107 4 0.0000000000000000e+00 -1.8339445543119112e+02 -5.9961156963359175e+00 -1.6614869627917648e+02 0 0 0
1643 47 2 0.0000000000000000e+00 -8.0835534143921222e+01 -6.4139173796973754e+00 -1.7324512244188818e+02 0 0 0
5087 146 4 0.0000000000000000e+00 -6.7997332417934317e+01 -6.7374104632672722e+00 -1.6992127530809026e+02 0 0 0
5088 146 4 0.0000000000000000e+00 -6.1366130821759704e+01 -8.5673751900656026e-01 -1.6553018132837806e+02 0 0 0
1725 50 2 0.0000000000000000e+00 -1.9764639974885407e+02 4.6970932053758654e+00 -1.7120130099498942e+02 0 0 0
1726 50 1 0.0000000000000000e+00 -1.9226028020822457e+02 6.2146576195633987e+00 -1.6280533477876523e+02 0 0 0
3742 107 3 0.0000000000000000e+00 -1.8922696405688495e+02 1.0049771873536544e+01 -1.7271297771097821e+02 0 0 0
3741 107 4 0.0000000000000000e+00 -1.8222875600916873e+02 3.6557011819758727e+00 -1.6884921019229898e+02 0 0 0
1644 47 2 0.0000000000000000e+00 -8.1249579036357545e+01 1.4989782255527027e+00 -1.6763717032296105e+02 0 0 0
1645 47 2 0.0000000000000000e+00 -7.9526479021736733e+01 1.1388694709015649e+01 -1.6812227480357663e+02 0 0 0
2071 60 2 0.0000000000000000e+00 -4.2085266973035999e+01 1.6733891174350688e+00 -1.7427171229305205e+02 0 0 0
5089 146 4 0.0000000000000000e+00 -5.1337643007901661e+01 -3.1822718244769527e-01 -1.6404199103085159e+02 0 0 0
2940 84 2 0.0000000000000000e+00 -1.4843439680248432e+02 2.3902021792835278e+01 -1.6461844000062223e+02 0 0 0
2939 84 2 0.0000000000000000e+00 -1.3976146739911408e+02 1.9107207469654572e+01 -1.6339579209661952e+02 0 0 0
2922 84 2 0.0000000000000000e+00 -1.1560546550407847e+02 1.6488514353969407e+01 -1.6927114399430582e+02 0 0 0
2921 84 2 0.0000000000000000e+00 -1.1625731963405360e+02 2.6096650500690505e+01 -1.7021229300581081e+02 0 0 0
4750 136 3 0.0000000000000000e+00 -5.7927840928677661e+01 2.1985118003427377e+01 -1.7138972465962652e+02 0 0 0
2073 60 2 0.0000000000000000e+00 -4.7683273583138707e+01 1.3317925192447497e+01 -1.6442677622379063e+02 0 0 0
489 14 2 0.0000000000000000e+00 -4.5326628091790397e+01 2.1278156781629825e+01 -1.7105965903415043e+02 0 0 0
2487 72 2 0.0000000000000000e+00 -1.8103714940938264e+02 3.8779122780954346e+01 -1.6758005961923919e+02 0 0 0
2488 72 2 0.0000000000000000e+00 -1.7639410333463982e+02 3.0539406609647557e+01 -1.7163847633939670e+02 0 0 0
6176 177 4 0.0000000000000000e+00 -1.6135856496969762e+02 3.3502230409476923e+01 -1.7172198060955259e+02 0 0 0
2917 84 2 0.0000000000000000e+00 -1.4663717281262427e+02 2.9593298219334823e+01 -1.7305838291358955e+02 0 0 0
2916 84 1 0.0000000000000000e+00 -1.4221332542546810e+02 3.1703532404136148e+01 -1.6444030258599469e+02 0 0 0
6200 178 4 0.0000000000000000e+00 -1.1393545185692496e+02 3.5636317771553713e+01 -1.6401172574423566e+02 0 0 0
6199 178 3 0.0000000000000000e+00 -1.1186008375757329e+02 3.7821472739075922e+01 -1.7393733272681175e+02 0 0 0
4751 136 4 0.0000000000000000e+00 -5.1455321582915559e+01 2.9050140288416383e+01 -1.7054875634115987e+02 0 0 0
4752 136 4 0.0000000000000000e+00 -4.4007607168979121e+01 3.4578809742362253e+01 -1.6655239118706200e+02 0 0 0
2486 72 2 0.0000000000000000e+00 -1.8767229756404339e+02 4.6565394813373260e+01 -1.6769439948090078e+02 0 0 0
5908 169 4 0.0000000000000000e+00 -1.6941790343686452e+02 4.5289926752782272e+01 -1.7218761879452444e+02 0 0 0
5907 169 4 0.0000000000000000e+00 -1.6338845672186986e+02 4.3734648730179757e+01 -1.6476895606445703e+02 0 0 0
6175 177 4 0.0000000000000000e+00 -1.5518336491642285e+02 4.1245718756045335e+01 -1.7198089686215502e+02 0 0 0
578 17 1 0.0000000000000000e+00 -1.0966020915075491e+02 4.8704689507617680e+01 -1.7400046351054976e+02 0 0 0
577 17 2 0.0000000000000000e+00 -1.0584230620494111e+02 4.5317230500054407e+01 -1.6564271207054043e+02 0 0 0
6247 179 4 0.0000000000000000e+00 -1.6919344605503153e+02 -1.4624150634418316e+02 -1.5878278919817004e+02 0 0 0
6246 179 4 0.0000000000000000e+00 -1.6384900867700532e+02 -1.4616607912491594e+02 -1.4985546377085200e+02 0 0 0
1611 47 2 0.0000000000000000e+00 -1.1409844218296861e+02 -1.4227277709660123e+02 -1.5308034973610043e+02 0 0 0
6307 181 4 0.0000000000000000e+00 -8.5002983517462127e+01 -1.3681447224212471e+02 -1.5468118977081886e+02 0 0 0
6308 181 4 0.0000000000000000e+00 -7.6120622384800598e+01 -1.3736200300945319e+02 -1.5926403092301277e+02 0 0 0
2820 81 2 0.0000000000000000e+00 -1.7169902585301131e+02 -1.3458652947315585e+02 -1.6217403158557863e+02 0 0 0
2821 81 2 0.0000000000000000e+00 -1.7078451657875414e+02 -1.3363296922006009e+02 -1.5245827196893086e+02 0 0 0
1612 47 2 0.0000000000000000e+00 -1.1243512585022383e+02 -1.3252541021434794e+02 -1.5602662543642711e+02 0 0 0
1613 47 2 0.0000000000000000e+00 -1.0942713155325316e+02 -1.2279170582227275e+02 -1.5742370266399760e+02 0 0 0
6306 181 4 0.0000000000000000e+00 -8.7654256245174153e+01 -1.2762903419392164e+02 -1.5319519543468579e+02 0 0 0
6309 181 4 0.0000000000000000e+00 -7.0401156762729897e+01 -1.2982216082258930e+02 -1.5687817344510051e+02 0 0 0
6310 181 4 0.0000000000000000e+00 -6.5817237160105009e+01 -1.2344424657292744e+02 -1.5093724009778668e+02 0 0 0
1614 47 1 0.0000000000000000e+00 -1.1006104744355750e+02 -1.1296756149346965e+02 -1.5326158984416398e+02 0 0 0
6305 181 4 0.0000000000000000e+00 -9.4845419531344362e+01 -1.2093835767218688e+02 -1.5086212154195564e+02 0 0 0
6329 181 4 0.0000000000000000e+00 -8.5573724196359876e+01 -1.1087804355879490e+02 -1.5893543473384446e+02 0 0 0
6328 181 4 0.0000000000000000e+00 -8.5121124146056758e+01 -1.1508289155963058e+02 -1.5058785635829727e+02 0 0 0
6311 181 3 0.0000000000000000e+00 -6.3306605320410270e+01 -1.1385803829831646e+02 -1.5153865878085605e+02 0 0 0
2629 76 1 0.0000000000000000e+00 -5.4284193198750451e+01 -1.1295895205470200e+02 -1.5874997166790652e+02 0 0 0
1615 47 2 0.0000000000000000e+00 -1.0452532276686669e+02 -1.0622836955348144e+02 -1.4921659865724320e+02 0 0 0
1616 47 2 0.0000000000000000e+00 -9.6383882639630897e+01 -1.0350157515747188e+02 -1.5325531327232704e+02 0 0 0
1617 47 2 0.0000000000000000e+00 -8.8139039029596418e+01 -9.8704207878431092e+01 -1.5096860462970488e+02 0 0 0
6312 181 4 0.0000000000000000e+00 -6.0342421332118306e+01 -1.0372527012095290e+02 -1.4958013069774569e+02 0 0 0
2085 60 2 0.0000000000000000e+00 -8.0249020180084543e+01 -5.8402389892368987e+01 -1.5875474627648305e+02 0 0 0
2086 60 2 0.0000000000000000e+00 -7.2857704266291037e+01 -6.4747895824529223e+01 -1.6151497805566947e+02 0 0 0
2083 60 1 0.0000000000000000e+00 -9.3529345111552473e+01 -4.5113783186233100e+01 -1.6160110879270323e+02 0 0 0
2084 60 2 0.0000000000000000e+00 -8.9169986188081268e+01 -5.4282626517757691e+01 -1.6005001721268511e+02 0 0 0
1637 47 2 0.0000000000000000e+00 -6.4762522802197196e+01 -4.2495455494916946e+01 -1.5420915151249088e+02 0 0 0
5532 159 4 0.0000000000000000e+00 -4.4642296515176454e+01 -4.7492557797144549e+01 -1.5154953449573662e+02 0 0 0
5531 159 4 0.0000000000000000e+00 -4.2904393816029753e+01 -5.2329578695221393e+01 -1.6003442189988820e+02 0 0 0
5533 159 4 0.0000000000000000e+00 -5.4585753932159108e+01 -4.9052765845849002e+01 -1.4973940028793353e+02 0 0 0
2539 73 2 0.0000000000000000e+00 -1.9094554445953415e+02 -4.0310226117673430e+01 -1.5577027521913752e+02 0 0 0
3735 107 3 0.0000000000000000e+00 -1.7912541537129508e+02 -3.5640866159963672e+01 -1.5791255490844307e+02 0 0 0
3736 107 4 0.0000000000000000e+00 -1.8374083684244744e+02 -3.1134256084968428e+01 -1.5103059922537591e+02 0 0 0
3733 107 4 0.0000000000000000e+00 -1.6572676988845484e+02 -3.3103673779311791e+01 -1.5541741237822970e+02 0 0 0
2082 60 2 0.0000000000000000e+00 -9.8771882000955003e+01 -3.6924748311302110e+01 -1.6033789924576431e+02 0 0 0
1638 47 2 0.0000000000000000e+00 -7.1117166547991246e+01 -3.4715192080269404e+01 -1.5656591685690020e+02 0 0 0
1636 47 2 0.0000000000000000e+00 -5.7165782913210577e+01 -3.6756549500463251e+01 -1.5226877777998314e+02 0 0 0
1635 47 1 0.0000000000000000e+00 -4.7320732837987848e+01 -3.4354802173901803e+01 -1.5270811613607137e+02 0 0 0
3738 107 4 0.0000000000000000e+00 -1.8885352721240324e+02 -1.6406841774321940e+01 -1.5583250897103230e+02 0 0 0
2535 73 2 0.0000000000000000e+00 -1.7009266634831647e+02 -1.7634898332748886e+01 -1.5584950378696067e+02 0 0 0
2081 60 2 0.0000000000000000e+00 -1.0082598731156480e+02 -2.7498278769433952e+01 -1.6220460465393228e+02 0 0 0
2080 60 2 0.0000000000000000e+00 -1.0010322133230612e+02 -1.9438994814877855e+01 -1.5671918152764704e+02 0 0 0
5564 159 4 0.0000000000000000e+00 -1.2762053359548369e+02 -1.4078039207402355e+01 -1.6129798950391302e+02 0 0 0
5563 159 4 0.0000000000000000e+00 -1.2290156104555408e+02 -6.1366866470752743e+00 -1.5724197325562940e+02 0 0 0
2078 60 2 0.0000000000000000e+00 -8.8053129455987303e+01 -5.1022057987594343e+00 -1.5153034774770143e+02 0 0 0
2079 60 2 0.0000000000000000e+00 -9.4317805579489914e+01 -1.2565791783333488e+01 -1.5285405340116253e+02 0 0 0
1727 50 2 0.0000000000000000e+00 -1.9205605745151763e+02 5.4858168680812662e+00 -1.5324911639333095e+02 0 0 0
5562 159 3 0.0000000000000000e+00 -1.2841677567157336e+02 2.5268199305878398e+00 -1.5487546854028110e+02 0 0 0
2923 84 1 0.0000000000000000e+00 -1.1801749561762978e+02 9.9411032408457345e+00 -1.6202251508543145e+02 0 0 0
2924 84 2 0.0000000000000000e+00 -1.1788774589571082e+02 4.4930683643065379e+00 -1.5368992584039529e+02 0 0 0
2077 60 2 0.0000000000000000e+00 -7.9467142677154285e+01 6.1882727852945553e-02 -1.5405589562723114e+02 0 0 0
2076 60 1 0.0000000000000000e+00 -7.0957478555029454e+01 5.0833381434178477e+00 -1.5228816478865440e+02 0 0 0
2075 60 2 0.0000000000000000e+00 -6.3493234521003643e+01 9.0752800072793125e+00 -1.5736377833516929e+02 0 0 0
2074 60 2 0.0000000000000000e+00 -5.4434708230206446e+01 8.0551119639887716e+00 -1.5887513217785715e+02 0 0 0
2937 84 1 0.0000000000000000e+00 -1.2390135876830001e+02 1.3569476497714735e+01 -1.5326383051960812e+02 0 0 0
2938 84 2 0.0000000000000000e+00 -1.3060262730275204e+02 1.7856627115361519e+01 -1.5941477259584659e+02 0 0 0
2914 84 2 0.0000000000000000e+00 -1.3465973434807040e+02 2.1877397046611936e+01 -1.4909894238570564e+02 0 0 0
490 14 2 0.0000000000000000e+00 -4.5161221140268424e+01 2.4410423416683063e+01 -1.6150020709499870e+02 0 0 0
5906 169 4 0.0000000000000000e+00 -1.5585980026139134e+02 3.7988012800860339e+01 -1.6078078832688593e+02 0 0 0
5905 169 3 0.0000000000000000e+00 -1.4987445890353987e+02 3.1467031818112652e+01 -1.5639001652025604e+02 0 0 0
2915 84 2 0.0000000000000000e+00 -1.3745912873391703e+02 2.6723572719328367e+01 -1.5720775460258801e+02 0 0 0
5904 169 4 0.0000000000000000e+00 -1.4237684051242977e+02 3.2065092542999132e+01 -1.4932127263937355e+02 0 0 0
6201 178 4 0.0000000000000000e+00 -1.1737617793869822e+02 3.6803099399492389e+01 -1.5480523404457892e+02 0 0 0
6022 173 4 0.0000000000000000e+00 -4.8545542230659258e+01 3.0274220569232433e+01 -1.5226442143299391e+02 0 0 0
6203 178 4 0.0000000000000000e+00 -1.2556491001189640e+02 5.3136318273192749e+01 -1.5576640717234955e+02 0 0 0
6202 178 4 0.0000000000000000e+00 -1.2158986788282260e+02 4.5222181680954805e+01 -1.5172982972631712e+02 0 0 0
576 17 2 0.0000000000000000e+00 -9.8472076013161910e+01 4.5053474325315612e+01 -1.5778193452140033e+02 0 0 0
575 17 2 0.0000000000000000e+00 -9.0990628543382527e+01 4.2191944405481735e+01 -1.5270514661445472e+02 0 0 0
571 17 1 0.0000000000000000e+00 -6.7831416465877268e+01 4.6523971999324125e+01 -1.4941496929002327e+02 0 0 0
6025 173 4 0.0000000000000000e+00 -5.4471100831471723e+01 5.2567972495123037e+01 -1.5517847452167641e+02 0 0 0
2822 81 2 0.0000000000000000e+00 -1.6988555952325632e+02 -1.3829378354178024e+02 -1.4436555972559273e+02 0 0 0
6245 179 4 0.0000000000000000e+00 -1.5951443804995003e+02 -1.4132793361817539e+02 -1.4244892256622487e+02 0 0 0
6301 181 4 0.0000000000000000e+00 -1.2295244472701265e+02 -1.2637584091921418e+02 -1.3960079025594513e+02 0 0 0
6303 181 4 0.0000000000000000e+00 -1.0895281262695489e+02 -1.2030466292081162e+02 -1.3791656005246867e+02 0 0 0
6304 181 3 0.0000000000000000e+00 -1.0423124718583712e+02 -1.1936177581119220e+02 -1.4693869114796269e+02 0 0 0
6327 181 4 0.0000000000000000e+00 -8.7629733103831967e+01 -1.1017950369194931e+02 -1.4237636477037023e+02 0 0 0