LAMMPS data file via write_data, version 5 Jun 2019, timestep = 350000000

7000 atoms
4 atom types
7255 bonds
3 bond types
6600 angles
2 angle types

-5.0000000000000000e+02 5.0000000000000000e+02 xlo xhi
-5.0000000000000000e+02 5.0000000000000000e+02 ylo yhi
-5.0000000000000000e+02 5.0000000000000000e+02 zlo zhi

Masses

1 1000
2 1000
3 1000
4 1000

Pair Coeffs # lj/cut

1 0.178 10
2 0.178 10
3 0.178 10
4 0.178 10

Angle Coeffs # cosine

1 2
2 2

Atoms # full

6230 178 4 0.0000000000000000e+00 -9.3276481770038757e+01 -3.8172493650371053e+00 -2.8473145297022313e+02 0 0 0
6336 182 4 0.0000000000000000e+00 -1.4782564407646228e+02 3.9646739811059156e+01 -2.8426118572405642e+02 0 0 0
6227 178 3 0.0000000000000000e+00 -9.0973699982585217e+01 -2.2651093863137824e+01 -2.7214838194405928e+02 0 0 0
6228 178 4 0.0000000000000000e+00 -8.8019558702844819e+01 -2.0800028946319436e+01 -2.8124659414749664e+02 0 0 0
6229 178 4 0.0000000000000000e+00 -8.6504628752354009e+01 -1.0916695839991894e+01 -2.8324385609756689e+02 0 0 0
456 14 2 0.0000000000000000e+00 -8.2636841677159978e+01 2.7069837381529371e-01 -2.8209826009378520e+02 0 0 0
457 14 2 0.0000000000000000e+00 -8.7576395472897900e+01 1.6376976679476400e+00 -2.7359620360254951e+02 0 0 0
6337 182 4 0.0000000000000000e+00 -1.4820719743117400e+02 3.5435832127561284e+01 -2.7461611074426372e+02 0 0 0
6225 178 4 0.0000000000000000e+00 -1.0112764038641063e+02 -2.7378865079722985e+01 -2.5675247221356693e+02 0 0 0
6226 178 4 0.0000000000000000e+00 -9.6161863658919927e+01 -2.1455749393341335e+01 -2.6350743914330161e+02 0 0 0
458 14 2 0.0000000000000000e+00 -8.5395716652575928e+01 -3.1076142032339793e-01 -2.6427529560182791e+02 0 0 0
6218 178 4 0.0000000000000000e+00 -8.2645614874123240e+01 1.2907115867779046e+01 -2.5972870153129196e+02 0 0 0
4760 136 4 0.0000000000000000e+00 -5.3090143265043800e+01 1.0862275103256897e+01 -2.6715355345616734e+02 0 0 0
6217 178 4 0.0000000000000000e+00 -8.0936093514811347e+01 2.2369443707635515e+01 -2.6149909017278054e+02 0 0 0
4759 136 4 0.0000000000000000e+00 -5.3452878028205184e+01 1.4451653594645142e+01 -2.5824746901967671e+02 0 0 0
6339 182 3 0.0000000000000000e+00 -1.5215353374150175e+02 3.0358869544615086e+01 -2.5874944004373179e+02 0 0 0
6338 182 4 0.0000000000000000e+00 -1.4609028919588775e+02 3.4773182846481504e+01 -2.6464360787367747e+02 0 0 0
6216 178 4 0.0000000000000000e+00 -7.8791533723762797e+01 3.1516282423444007e+01 -2.6378462398014852e+02 0 0 0
6215 178 4 0.0000000000000000e+00 -7.9928809140422700e+01 4.1443928310557681e+01 -2.6377261883709855e+02 0 0 0
6214 178 4 0.0000000000000000e+00 -7.9305865702987845e+01 5.0553900086062647e+01 -2.5993521451149894e+02 0 0 0
6224 178 4 0.0000000000000000e+00 -1.0898171972563100e+02 -2.8798377487311843e+01 -2.5092982907910277e+02 0 0 0
6223 178 4 0.0000000000000000e+00 -1.0589585849598561e+02 -1.9743609305560312e+01 -2.4774403227560418e+02 0 0 0
6222 178 4 0.0000000000000000e+00 -1.0390098096657228e+02 -1.0319190016736217e+01 -2.4549846927159314e+02 0 0 0
459 14 1 0.0000000000000000e+00 -8.4312203752176217e+01 -4.1249928123069264e+00 -2.5483640000987964e+02 0 0 0
460 14 2 0.0000000000000000e+00 -8.4629334108234659e+01 -8.4020426314970962e+00 -2.4559730556052688e+02 0 0 0
6220 178 3 0.0000000000000000e+00 -8.8345897761317588e+01 4.8621793030639687e-01 -2.4550902429120708e+02 0 0 0
6219 178 4 0.0000000000000000e+00 -8.4979742445076440e+01 8.6118276616652967e+00 -2.5037275878927775e+02 0 0 0
6340 182 4 0.0000000000000000e+00 -1.5844318938784011e+02 2.5078391521016417e+01 -2.5245299398320702e+02 0 0 0
6341 182 4 0.0000000000000000e+00 -1.5952109409653286e+02 2.2300646817302638e+01 -2.4319389643452931e+02 0 0 0
4758 136 4 0.0000000000000000e+00 -5.1927357211202832e+01 1.6835862914521162e+01 -2.4836937853130692e+02 0 0 0
2093 60 2 0.0000000000000000e+00 -3.1379635266185087e+01 -7.7990568782055888e+01 -2.3002002012953727e+02 0 0 0
2094 60 2 0.0000000000000000e+00 -2.3910611916689120e+01 -7.5089219110615772e+01 -2.3535237073168187e+02 0 0 0
2100 60 2 0.0000000000000000e+00 -3.9957263530931428e+01 -5.0508523397720381e+01 -2.2982806170453043e+02 0 0 0
6221 178 4 0.0000000000000000e+00 -9.6828208057393681e+01 -3.5068572545154018e+00 -2.4260895951613867e+02 0 0 0
461 14 2 0.0000000000000000e+00 -8.2267633153626079e+01 -5.4190448650792105e+00 -2.3653268443638441e+02 0 0 0
462 14 2 0.0000000000000000e+00 -7.7409211672541886e+01 3.2785781636249531e+00 -2.3426277021215037e+02 0 0 0
463 14 2 0.0000000000000000e+00 -7.7960056022057714e+01 1.2849395598866714e+01 -2.3424325243820746e+02 0 0 0
4757 136 3 0.0000000000000000e+00 -5.0071819549060010e+01 1.8690371583103630e+01 -2.3872026734910912e+02 0 0 0
4756 136 4 0.0000000000000000e+00 -4.4068284365312415e+01 2.0127986260682288e+01 -2.3103993573602702e+02 0 0 0
2066 60 2 0.0000000000000000e+00 -2.2604294476145636e+01 2.0471862980697885e+01 -2.3193579507138367e+02 0 0 0
2067 60 2 0.0000000000000000e+00 -1.8799477479855359e+01 1.6526363573127490e+01 -2.3986569969528907e+02 0 0 0
6342 182 4 0.0000000000000000e+00 -1.5578188933149906e+02 2.9969036221002032e+01 -2.3813252689935277e+02 0 0 0
6343 182 4 0.0000000000000000e+00 -1.5614325107444745e+02 3.9986556881263866e+01 -2.3561650221225088e+02 0 0 0
480 14 1 0.0000000000000000e+00 -4.8650259883287447e+01 2.9305457493689310e+01 -2.3469208875628183e+02 0 0 0
481 14 2 0.0000000000000000e+00 -4.0980263029747327e+01 3.5271353445682493e+01 -2.3664313908680646e+02 0 0 0
2092 60 2 0.0000000000000000e+00 -3.3582190655560574e+01 -7.8872415714904236e+01 -2.2017484293497483e+02 0 0 0
2099 60 2 0.0000000000000000e+00 -3.3755604987444435e+01 -4.8856115181502140e+01 -2.2218207334594123e+02 0 0 0
2098 60 2 0.0000000000000000e+00 -2.4092550090864460e+01 -5.1273165854182700e+01 -2.1934969971009724e+02 0 0 0
4754 136 4 0.0000000000000000e+00 -4.3845551840699933e+01 1.0145089124851902e+01 -2.1668544358470606e+02 0 0 0
464 14 2 0.0000000000000000e+00 -7.2932328734678265e+01 1.9364122506855484e+01 -2.2926845080323142e+02 0 0 0
478 14 2 0.0000000000000000e+00 -6.2260874726171849e+01 2.3879279576978348e+01 -2.2183386771600846e+02 0 0 0
479 14 2 0.0000000000000000e+00 -5.4945734346788100e+01 2.4229226189008994e+01 -2.2888641174450217e+02 0 0 0
4755 136 4 0.0000000000000000e+00 -4.1093553379294612e+01 1.8267662731733502e+01 -2.2132835246806326e+02 0 0 0
6050 173 4 0.0000000000000000e+00 -1.8101871373702760e+01 2.7387678100033980e+01 -2.1796178209104386e+02 0 0 0
589 17 2 0.0000000000000000e+00 -1.7707722542171794e+02 3.3135657250181175e+01 -2.1755085493267683e+02 0 0 0
565 17 2 0.0000000000000000e+00 -1.1743806957278940e+02 3.2586262325859373e+01 -2.2024514150233779e+02 0 0 0
564 17 1 0.0000000000000000e+00 -1.2158145427504691e+02 4.0983289255122358e+01 -2.1754061887038878e+02 0 0 0
566 17 2 0.0000000000000000e+00 -1.0773336403073084e+02 3.1335699485666790e+01 -2.2042735131422589e+02 0 0 0
567 17 2 0.0000000000000000e+00 -9.8884649665059968e+01 3.5605139626298694e+01 -2.2271694182228759e+02 0 0 0
465 14 2 0.0000000000000000e+00 -7.3115918035960874e+01 2.7559294336303040e+01 -2.2308295328858279e+02 0 0 0
466 14 1 0.0000000000000000e+00 -8.0100348923215734e+01 3.1078030481467927e+01 -2.1705340864897821e+02 0 0 0
482 14 2 0.0000000000000000e+00 -3.5939073086238338e+01 3.3684254204319629e+01 -2.2824165918692313e+02 0 0 0
483 14 2 0.0000000000000000e+00 -3.4896666569949033e+01 3.2592677021836209e+01 -2.1921065109512713e+02 0 0 0
6344 182 4 0.0000000000000000e+00 -1.5936199618778255e+02 4.7005925433279671e+01 -2.2868029526225274e+02 0 0 0
6345 182 4 0.0000000000000000e+00 -1.5353533461842488e+02 5.3787833123787046e+01 -2.2447622833501438e+02 0 0 0
568 17 2 0.0000000000000000e+00 -9.1988329778856581e+01 4.2869104820321866e+01 -2.2609909718138434e+02 0 0 0
569 17 2 0.0000000000000000e+00 -9.0627861011002352e+01 4.7109133568698880e+01 -2.1703816068244163e+02 0 0 0
5440 156 4 0.0000000000000000e+00 -1.7615125286426927e+01 -9.5302448035375022e+01 -2.0848560345025572e+02 0 0 0
6335 181 4 0.0000000000000000e+00 -3.4169184044288833e+01 -8.8889200879686072e+01 -2.1521983263179857e+02 0 0 0
6334 181 4 0.0000000000000000e+00 -3.3016913849239245e+01 -8.3315546942800154e+01 -2.0680429764824186e+02 0 0 0
5439 156 4 0.0000000000000000e+00 -2.0907639772055717e+01 -8.5588654670146781e+01 -2.1066940411029563e+02 0 0 0
2091 60 2 0.0000000000000000e+00 -3.4669488261194161e+01 -7.3969690036222246e+01 -2.1095127519909693e+02 0 0 0
5437 156 4 0.0000000000000000e+00 -2.2141768474112418e+01 -6.9733985726585232e+01 -2.0729174274126578e+02 0 0 0
5438 156 4 0.0000000000000000e+00 -2.4018056325255291e+01 -7.6780747897498941e+01 -2.1354483051422346e+02 0 0 0
2089 60 2 0.0000000000000000e+00 -2.3081389386456824e+01 -7.8669493234044779e+01 -2.0252231745641896e+02 0 0 0
5436 156 3 0.0000000000000000e+00 -1.8206462889465879e+01 -6.1588460254622291e+01 -2.0963468685761464e+02 0 0 0
595 17 2 0.0000000000000000e+00 -2.0580566514868735e+02 1.7502844140193501e+00 -2.0570211552788044e+02 0 0 0
4753 136 4 0.0000000000000000e+00 -4.5380248743484231e+01 4.4557724631497910e+00 -2.0856352732965021e+02 0 0 0
593 17 2 0.0000000000000000e+00 -2.0385962672708391e+02 1.7908521513234838e+01 -2.0716444509452083e+02 0 0 0
592 17 1 0.0000000000000000e+00 -1.9989391418236573e+02 2.6674229894903615e+01 -2.0535110583762855e+02 0 0 0
590 17 2 0.0000000000000000e+00 -1.8355400764327237e+02 2.5587105149657607e+01 -2.1595580071171534e+02 0 0 0
591 17 2 0.0000000000000000e+00 -1.9296192062683818e+02 2.5235459172535940e+01 -2.1242412422196625e+02 0 0 0
477 14 2 0.0000000000000000e+00 -6.3598934307469356e+01 2.5321650815498366e+01 -2.1183976870439338e+02 0 0 0
485 14 2 0.0000000000000000e+00 -2.5880423374180612e+01 2.5036277049012746e+01 -2.0521329821782911e+02 0 0 0
588 17 2 0.0000000000000000e+00 -1.7087374063909769e+02 3.9411481691164440e+01 -2.1292067958094628e+02 0 0 0
586 17 2 0.0000000000000000e+00 -1.5664103194593386e+02 3.7186076632383688e+01 -2.0886815739079822e+02 0 0 0
585 17 1 0.0000000000000000e+00 -1.4786644690914272e+02 3.4602995358850002e+01 -2.0655640471222540e+02 0 0 0
584 17 2 0.0000000000000000e+00 -1.4000050934831185e+02 2.9298188144254322e+01 -2.0355089746496799e+02 0 0 0
467 14 2 0.0000000000000000e+00 -7.9786655658699374e+01 3.7427251422187801e+01 -2.0949934426614655e+02 0 0 0
476 14 2 0.0000000000000000e+00 -6.4708015705773974e+01 3.0220926456113943e+01 -2.0296526766411208e+02 0 0 0
484 14 2 0.0000000000000000e+00 -3.2706970303482365e+01 2.9108417727105405e+01 -2.1035891180249152e+02 0 0 0
6048 173 4 0.0000000000000000e+00 -2.6753032853061008e+01 3.5238698635950030e+01 -2.0702629729006603e+02 0 0 0
6049 173 4 0.0000000000000000e+00 -2.3495786910009905e+01 3.5732059855640841e+01 -2.1566096645190905e+02 0 0 0
587 17 2 0.0000000000000000e+00 -1.6368042041745073e+02 4.4093340488113704e+01 -2.0760324755372665e+02 0 0 0
5914 169 4 0.0000000000000000e+00 -1.3733055269922272e+02 4.9383279783824840e+01 -2.1194208432949910e+02 0 0 0
5913 169 4 0.0000000000000000e+00 -1.4034884753330633e+02 4.5398169310334993e+01 -2.0330602787347721e+02 0 0 0
562 17 2 0.0000000000000000e+00 -1.1375961699232856e+02 5.2464086728107269e+01 -2.0360680723445677e+02 0 0 0
563 17 2 0.0000000000000000e+00 -1.1695344696342532e+02 4.5526578601295256e+01 -2.0964978191590532e+02 0 0 0
570 17 2 0.0000000000000000e+00 -9.1039856795073362e+01 4.3390550509515151e+01 -2.0802751871672262e+02 0 0 0
5441 156 4 0.0000000000000000e+00 -1.8820008273960642e+01 -9.5194041192528900e+01 -1.9826802335192434e+02 0 0 0
6333 181 4 0.0000000000000000e+00 -3.6911503623357007e+01 -8.0846299961325414e+01 -1.9723026189154132e+02 0 0 0
3026 87 2 0.0000000000000000e+00 -2.4460121908673841e+01 -8.3670619473739194e+01 -1.9356024219063252e+02 0 0 0
5442 156 4 0.0000000000000000e+00 -1.8199284854371484e+01 -9.3204902693687529e+01 -1.8900604505656705e+02 0 0 0
2090 60 1 0.0000000000000000e+00 -3.0785640762127752e+01 -7.1933647379049020e+01 -2.0227673836876889e+02 0 0 0
6332 181 3 0.0000000000000000e+00 -3.5293451590804935e+01 -7.1973456937669866e+01 -1.9238198603333817e+02 0 0 0
6331 181 4 0.0000000000000000e+00 -2.9451888112407691e+01 -6.4555568586490637e+01 -1.9141959512359387e+02 0 0 0
6330 181 4 0.0000000000000000e+00 -2.8945882130332375e+01 -5.4897304724222316e+01 -1.8906592751916139e+02 0 0 0
594 17 2 0.0000000000000000e+00 -2.0837559883562244e+02 1.0778827708367732e+01 -2.0201159304748285e+02 0 0 0
6165 177 4 0.0000000000000000e+00 -1.9704485734798365e+02 1.3843981452934285e+01 -1.9346445142581962e+02 0 0 0
4752 136 4 0.0000000000000000e+00 -4.7197612509727151e+01 1.1825015296177044e+00 -1.9855319791761184e+02 0 0 0
4751 136 4 0.0000000000000000e+00 -3.9348599615522993e+01 2.6615299295205554e+00 -1.9318316860142201e+02 0 0 0
487 14 1 0.0000000000000000e+00 -3.0391218776476734e+01 1.1905220596634839e+01 -1.9191956996984712e+02 0 0 0
6164 177 3 0.0000000000000000e+00 -1.9265448756936181e+02 2.1228131124980489e+01 -1.9847936967667172e+02 0 0 0
486 14 2 0.0000000000000000e+00 -2.4760638322771083e+01 1.7917245298396328e+01 -1.9848904565014439e+02 0 0 0
6163 177 4 0.0000000000000000e+00 -1.9460968786767367e+02 2.9465010984741816e+01 -1.9410431162883731e+02 0 0 0
583 17 2 0.0000000000000000e+00 -1.3219262345023375e+02 3.4170829226339805e+01 -1.9999623825221443e+02 0 0 0
582 17 2 0.0000000000000000e+00 -1.3446311691657849e+02 3.9250240614241015e+01 -1.9136748942822237e+02 0 0 0
574 17 2 0.0000000000000000e+00 -1.0069054529820102e+02 3.1721459920517937e+01 -1.9230697467106469e+02 0 0 0
573 17 2 0.0000000000000000e+00 -1.0920119311893670e+02 3.5607752745210583e+01 -1.9578830403168689e+02 0 0 0
468 14 2 0.0000000000000000e+00 -7.9631657480098625e+01 3.7072709451197092e+01 -1.9968890775417756e+02 0 0 0
475 14 2 0.0000000000000000e+00 -6.3674748906018849e+01 3.0723601615087407e+01 -1.9304622187257763e+02 0 0 0
6047 173 4 0.0000000000000000e+00 -3.0242405889784148e+01 3.1089574434216118e+01 -1.9867961057589034e+02 0 0 0
6046 173 4 0.0000000000000000e+00 -2.6320612773349794e+01 2.8055396620247194e+01 -1.9039191834995424e+02 0 0 0
5912 169 3 0.0000000000000000e+00 -1.4757365616890300e+02 4.1234936001575086e+01 -1.9728397812385111e+02 0 0 0
561 17 2 0.0000000000000000e+00 -1.2065066581125451e+02 4.7259039312331367e+01 -1.9949241915439592e+02 0 0 0
572 17 2 0.0000000000000000e+00 -1.0800082120001113e+02 4.3187929765332235e+01 -2.0150819970811270e+02 0 0 0
6205 178 4 0.0000000000000000e+00 -1.0696356228800447e+02 5.3749093898937559e+01 -1.9472867743718652e+02 0 0 0
571 17 1 0.0000000000000000e+00 -9.8094986624474942e+01 4.2426916443693806e+01 -2.0223616919727255e+02 0 0 0
6206 178 3 0.0000000000000000e+00 -9.8976506131638374e+01 5.3573088134637722e+01 -2.0124908714163911e+02 0 0 0
469 14 2 0.0000000000000000e+00 -8.0071689089145309e+01 4.3730146432004361e+01 -1.9214464869086066e+02 0 0 0
470 14 2 0.0000000000000000e+00 -8.2369242599845521e+01 5.3259804825800430e+01 -1.9116155086935919e+02 0 0 0
1611 47 2 0.0000000000000000e+00 -1.0342314955065281e+02 -8.3215306100146819e+01 -1.8721530479862329e+02 0 0 0
1612 47 2 0.0000000000000000e+00 -9.8668417873121143e+01 -8.3604501458389052e+01 -1.7862733221759026e+02 0 0 0
3025 87 2 0.0000000000000000e+00 -2.2892733777409784e+01 -7.6082619501799684e+01 -1.8718624181455252e+02 0 0 0
6329 181 4 0.0000000000000000e+00 -2.9022483354161132e+01 -4.6492054776689379e+01 -1.8302070766915611e+02 0 0 0
4749 136 4 0.0000000000000000e+00 -3.3847849956520029e+01 1.3296540882098595e-01 -1.7745484187697738e+02 0 0 0
6167 177 4 0.0000000000000000e+00 -1.9789322721332070e+02 9.3816110147060741e+00 -1.7850792683388661e+02 0 0 0
2498 72 2 0.0000000000000000e+00 -1.6289917561985663e+02 7.2765394313332186e+00 -1.8565264679600327e+02 0 0 0
2499 72 2 0.0000000000000000e+00 -1.5453287198391666e+02 1.2511727340018043e+01 -1.8755494351551181e+02 0 0 0
2500 72 2 0.0000000000000000e+00 -1.5388636465307107e+02 5.3952263979796120e+00 -1.8073157332349101e+02 0 0 0
4750 136 3 0.0000000000000000e+00 -3.2085879630508380e+01 1.6530478674483231e+00 -1.8700183760175909e+02 0 0 0
488 14 2 0.0000000000000000e+00 -2.7081589130153361e+01 1.1242990983060103e+01 -1.8221970794871623e+02 0 0 0
6166 177 4 0.0000000000000000e+00 -2.0278316781645773e+02 1.4119363396341042e+01 -1.8534824995069062e+02 0 0 0
2487 72 2 0.0000000000000000e+00 -2.0031639533864194e+02 2.2939725776915079e+01 -1.7630487830019894e+02 0 0 0
2497 72 2 0.0000000000000000e+00 -1.6430426213942911e+02 1.5842049355738663e+01 -1.8123684676848140e+02 0 0 0
6028 173 4 0.0000000000000000e+00 -3.3925343390606784e+01 2.3438313415841556e+01 -1.8239723872493428e+02 0 0 0
6045 173 3 0.0000000000000000e+00 -1.9572133310213708e+01 2.5168647401424050e+01 -1.8429129280345970e+02 0 0 0
6162 177 4 0.0000000000000000e+00 -1.8833489044433983e+02 3.2059433824630126e+01 -1.8687542095031083e+02 0 0 0
6161 177 4 0.0000000000000000e+00 -1.7922064899202175e+02 3.6078609772453930e+01 -1.8462256386114854e+02 0 0 0
581 17 2 0.0000000000000000e+00 -1.3955727491985166e+02 3.9134167405992613e+01 -1.8295992382912917e+02 0 0 0
578 17 1 0.0000000000000000e+00 -1.1608520385251410e+02 3.9156863571382281e+01 -1.8012461418954609e+02 0 0 0
575 17 2 0.0000000000000000e+00 -1.0385043818003993e+02 2.7515632395813661e+01 -1.8364481929267333e+02 0 0 0
576 17 2 0.0000000000000000e+00 -1.0564112864050365e+02 3.6884305275801083e+01 -1.8135034146897263e+02 0 0 0
474 14 2 0.0000000000000000e+00 -6.7586603664603942e+01 3.6090489318763368e+01 -1.8499063306527663e+02 0 0 0
6025 173 4 0.0000000000000000e+00 -5.7507202310869474e+01 3.6143651717549758e+01 -1.8139677443627193e+02 0 0 0
6026 173 4 0.0000000000000000e+00 -5.2658869571204590e+01 2.8219895662472457e+01 -1.8523754779704456e+02 0 0 0
6027 173 4 0.0000000000000000e+00 -4.2039494267459858e+01 2.7738067381733600e+01 -1.8607181890672067e+02 0 0 0
6029 173 4 0.0000000000000000e+00 -2.9734449902369327e+01 2.9373640540687948e+01 -1.7592999503907001e+02 0 0 0
5911 169 4 0.0000000000000000e+00 -1.4856700947650930e+02 4.2902935313313371e+01 -1.8755343963642127e+02 0 0 0
5910 169 4 0.0000000000000000e+00 -1.4914270202775475e+02 4.6206308111873696e+01 -1.7786563344020504e+02 0 0 0
580 17 2 0.0000000000000000e+00 -1.3419345314273272e+02 4.3488380179154504e+01 -1.7617797571810416e+02 0 0 0
6204 178 4 0.0000000000000000e+00 -1.1421145364060828e+02 5.1724507679992591e+01 -1.8788502931331857e+02 0 0 0
6203 178 4 0.0000000000000000e+00 -1.2331165107449679e+02 5.0543831473452073e+01 -1.8388062826408174e+02 0 0 0
6199 178 3 0.0000000000000000e+00 -1.1611689678854991e+02 4.9853604808944873e+01 -1.7659389948310047e+02 0 0 0
577 17 2 0.0000000000000000e+00 -1.0967171840934964e+02 4.2783125201829165e+01 -1.8761714777453099e+02 0 0 0
473 14 1 0.0000000000000000e+00 -6.7380266915804555e+01 4.5911974623400930e+01 -1.8665291959766083e+02 0 0 0
6024 173 3 0.0000000000000000e+00 -6.0952423489104987e+01 4.4459904664647887e+01 -1.7720529745300806e+02 0 0 0
6023 173 4 0.0000000000000000e+00 -5.7963851698890466e+01 5.3683443802201289e+01 -1.7623294675052546e+02 0 0 0
6302 181 4 0.0000000000000000e+00 -1.1104800679975941e+02 -9.7627621653711316e+01 -1.6502838314092264e+02 0 0 0
6303 181 4 0.0000000000000000e+00 -1.0326858585111975e+02 -9.2190387211954771e+01 -1.6364029893318778e+02 0 0 0
6304 181 3 0.0000000000000000e+00 -9.5491125422591182e+01 -8.8592790673573688e+01 -1.6785686284280771e+02 0 0 0
6305 181 4 0.0000000000000000e+00 -8.6168288169155829e+01 -8.4702178382831264e+01 -1.6800734656029789e+02 0 0 0
6252 179 4 0.0000000000000000e+00 -2.8912521681036714e+02 -7.5989593419035444e+01 -1.6432296172599959e+02 0 0 0
6253 179 4 0.0000000000000000e+00 -2.8447392771173497e+02 -6.7617695690605345e+01 -1.6637778874580428e+02 0 0 0
2547 73 2 0.0000000000000000e+00 -1.7276841267994376e+02 -7.8293356313329085e+01 -1.6460655691237633e+02 0 0 0
2548 73 2 0.0000000000000000e+00 -1.6555331048906521e+02 -7.1988072556397753e+01 -1.6669896684817837e+02 0 0 0
1613 47 2 0.0000000000000000e+00 -9.9405254589643590e+01 -7.7329345302102581e+01 -1.7095322709207645e+02 0 0 0
1614 47 1 0.0000000000000000e+00 -9.2271573434785779e+01 -7.8538848979551744e+01 -1.6357386389387722e+02 0 0 0
6306 181 4 0.0000000000000000e+00 -7.6996891401081754e+01 -7.9769636850907887e+01 -1.6723687047378473e+02 0 0 0
3744 107 4 0.0000000000000000e+00 -1.0415092618825733e+02 -5.3007467392802312e+01 -1.6314674200722487e+02 0 0 0
6328 181 4 0.0000000000000000e+00 -3.3493942534847044e+01 -4.6553538295641637e+01 -1.7423185523968402e+02 0 0 0
6327 181 4 0.0000000000000000e+00 -4.1074123795924727e+01 -4.6234596092565489e+01 -1.6800397626313918e+02 0 0 0
4748 136 4 0.0000000000000000e+00 -2.6589741462890672e+01 -4.5800366389465950e+00 -1.7237674613766242e+02 0 0 0
4747 136 4 0.0000000000000000e+00 -1.9857827869073621e+01 -8.9895766562967445e+00 -1.6780925802736948e+02 0 0 0
6168 177 4 0.0000000000000000e+00 -1.8957109022045819e+02 1.2223621513612054e+01 -1.7425747428263145e+02 0 0 0
6169 177 4 0.0000000000000000e+00 -1.7911884294569592e+02 1.1538766439954665e+01 -1.7291186181177775e+02 0 0 0
2501 72 2 0.0000000000000000e+00 -1.5368469364738536e+02 1.0622452091155720e+01 -1.7216155477558377e+02 0 0 0
6195 177 4 0.0000000000000000e+00 -1.0196538449729681e+02 1.3841404334667541e+01 -1.6227103286368904e+02 0 0 0
489 14 2 0.0000000000000000e+00 -2.5358578595131579e+01 7.4626551381885262e+00 -1.7299739080971023e+02 0 0 0
490 14 2 0.0000000000000000e+00 -2.2398781546895613e+01 9.3072980271487822e+00 -1.6357279141375219e+02 0 0 0
2488 72 2 0.0000000000000000e+00 -2.0349078636087600e+02 1.5539858233170683e+01 -1.7050159597305773e+02 0 0 0
6170 177 4 0.0000000000000000e+00 -1.7146389376665027e+02 1.7657838744349057e+01 -1.7475977026947700e+02 0 0 0
2495 72 2 0.0000000000000000e+00 -1.6895511014434075e+02 2.3292682733637285e+01 -1.6708225136118719e+02 0 0 0
6171 177 3 0.0000000000000000e+00 -1.6452862698524009e+02 1.4220506688579635e+01 -1.6844993224890854e+02 0 0 0
2496 72 1 0.0000000000000000e+00 -1.6246144734998094e+02 2.3421269470282450e+01 -1.7463705819561528e+02 0 0 0
2502 72 2 0.0000000000000000e+00 -1.5147498469971092e+02 1.5892266014852119e+01 -1.6416426590728904e+02 0 0 0
2486 72 2 0.0000000000000000e+00 -2.0099292488271820e+02 3.3160325646847397e+01 -1.7520756557846582e+02 0 0 0
6196 178 4 0.0000000000000000e+00 -9.3474428765584435e+01 4.0134656537933353e+01 -1.6290778428103147e+02 0 0 0
6030 173 4 0.0000000000000000e+00 -2.5020052715254884e+01 3.6214522454267410e+01 -1.7040462212673785e+02 0 0 0
5909 169 4 0.0000000000000000e+00 -1.4417632002475838e+02 5.1941895884692372e+01 -1.7148541178829288e+02 0 0 0
579 17 2 0.0000000000000000e+00 -1.2418471971838473e+02 4.1901577354598359e+01 -1.7456269219603755e+02 0 0 0
6200 178 4 0.0000000000000000e+00 -1.2531395270274004e+02 5.1806043510196680e+01 -1.7261262392594716e+02 0 0 0
6198 178 4 0.0000000000000000e+00 -1.0640777397025072e+02 5.0185237946291274e+01 -1.7321721972894375e+02 0 0 0
6197 178 4 0.0000000000000000e+00 -9.8140398101169581e+01 4.5597307763855184e+01 -1.6932757906686135e+02 0 0 0
6031 173 3 0.0000000000000000e+00 -2.1800176844397225e+01 4.5015664485040091e+01 -1.6608337304001014e+02 0 0 0
6249 179 4 0.0000000000000000e+00 -2.7553350760347394e+02 -9.4738786722776950e+01 -1.4892565454316033e+02 0 0 0
6301 181 4 0.0000000000000000e+00 -1.0955476434274750e+02 -1.0636728827435991e+02 -1.6104927023765910e+02 0 0 0
6250 179 4 0.0000000000000000e+00 -2.8144430002002656e+02 -8.6796747796940338e+01 -1.5145984660518300e+02 0 0 0
6251 179 4 0.0000000000000000e+00 -2.8233794115354215e+02 -8.2240116555408136e+01 -1.5984794783419008e+02 0 0 0
2545 73 1 0.0000000000000000e+00 -1.8283330386388951e+02 -7.3527487838993636e+01 -1.4843706302064430e+02 0 0 0
2546 73 2 0.0000000000000000e+00 -1.7872827160757882e+02 -7.6431839990482899e+01 -1.5682130199258799e+02 0 0 0
2549 73 2 0.0000000000000000e+00 -1.6138187083965963e+02 -6.8027048448731904e+01 -1.5863093274185439e+02 0 0 0
6495 186 4 0.0000000000000000e+00 -1.6195369351520458e+02 -7.8633799412892373e+01 -1.4957386775483718e+02 0 0 0
1615 47 2 0.0000000000000000e+00 -8.7998564374204065e+01 -7.6877167927924972e+01 -1.5480669316842469e+02 0 0 0
6307 181 4 0.0000000000000000e+00 -7.2170598537483954e+01 -7.8918870868746922e+01 -1.5858381952306200e+02 0 0 0
6308 181 4 0.0000000000000000e+00 -6.6013438241194379e+01 -7.1347793486106454e+01 -1.5531210058701640e+02 0 0 0
2816 81 2 0.0000000000000000e+00 -3.0702841669240740e+02 -5.4979922519371407e+01 -1.5294721966251026e+02 0 0 0
2817 81 2 0.0000000000000000e+00 -2.9840472265172934e+02 -5.9071146407784013e+01 -1.5393553241053209e+02 0 0 0
2818 81 1 0.0000000000000000e+00 -2.8933561040999268e+02 -5.8237939431137171e+01 -1.5051062893587030e+02 0 0 0
6254 179 4 0.0000000000000000e+00 -2.8960934178756503e+02 -6.0591875664553157e+01 -1.6132382830500958e+02 0 0 0
2550 73 2 0.0000000000000000e+00 -1.5445277818808668e+02 -6.2469928671087757e+01 -1.5366475981000642e+02 0 0 0
2551 73 2 0.0000000000000000e+00 -1.4618325410806108e+02 -6.4776653385989604e+01 -1.4900375042999366e+02 0 0 0
3743 107 4 0.0000000000000000e+00 -1.0089476873345448e+02 -6.1912951651766292e+01 -1.5888080865392516e+02 0 0 0
6257 179 4 0.0000000000000000e+00 -3.0693276549658532e+02 -4.5660353587484600e+01 -1.5272244363334605e+02 0 0 0
6256 179 4 0.0000000000000000e+00 -2.9716106504351501e+02 -4.4676279155973269e+01 -1.5491318566665731e+02 0 0 0
6255 179 3 0.0000000000000000e+00 -2.8941270880451918e+02 -5.0443317436171561e+01 -1.5881195416438530e+02 0 0 0
3745 107 4 0.0000000000000000e+00 -1.0186195348388502e+02 -4.4264467053081447e+01 -1.6033218551115573e+02 0 0 0
3741 107 4 0.0000000000000000e+00 -1.0840451713985645e+02 -5.2598365054805903e+01 -1.5073248874322636e+02 0 0 0
1397 40 1 0.0000000000000000e+00 -9.9989315646922492e+01 -4.2510187594495960e+01 -1.5007620938946064e+02 0 0 0
3742 107 3 0.0000000000000000e+00 -9.9100816203295579e+01 -5.2872515902611326e+01 -1.5424984487487674e+02 0 0 0
1620 47 2 0.0000000000000000e+00 -5.7805459563905693e+01 -4.4984811028942268e+01 -1.4878540778957480e+02 0 0 0
1621 47 1 0.0000000000000000e+00 -4.8244456183063456e+01 -4.3839490102784850e+01 -1.5083620052422538e+02 0 0 0
6326 181 4 0.0000000000000000e+00 -3.7090901621463779e+01 -4.7603461783856815e+01 -1.5866975447878926e+02 0 0 0
6325 181 3 0.0000000000000000e+00 -3.8137315281349707e+01 -4.8619878895038859e+01 -1.4911296455167195e+02 0 0 0
1399 40 2 0.0000000000000000e+00 -1.1483159498460634e+02 -3.2169436088442680e+01 -1.5005932173375700e+02 0 0 0
1398 40 2 0.0000000000000000e+00 -1.0686921952003263e+02 -3.6225955689089481e+01 -1.5390651103250735e+02 0 0 0
1622 47 2 0.0000000000000000e+00 -3.9145770386471511e+01 -3.9363981551473302e+01 -1.5322321617481978e+02 0 0 0
1623 47 2 0.0000000000000000e+00 -3.4968689025883229e+01 -3.0497720143998446e+01 -1.5695218400331328e+02 0 0 0
1624 47 2 0.0000000000000000e+00 -2.5141033649224926e+01 -3.0932518775094714e+01 -1.5716013613028977e+02 0 0 0
2492 72 2 0.0000000000000000e+00 -1.7688578173126382e+02 -2.0898581140170251e+00 -1.5647490118008574e+02 0 0 0
4746 136 4 0.0000000000000000e+00 -1.8124276913657912e+01 -1.1427516947587192e+01 -1.5874522125772009e+02 0 0 0
2489 72 1 0.0000000000000000e+00 -2.0219442828756922e+02 1.1619340651939952e+01 -1.6123203970179338e+02 0 0 0
2491 72 2 0.0000000000000000e+00 -1.8504365154578113e+02 1.5645822602950348e+00 -1.6130686717842792e+02 0 0 0
6178 177 3 0.0000000000000000e+00 -1.9559631928574166e+02 1.3683605691410424e+01 -1.5235333970784430e+02 0 0 0
2490 72 2 0.0000000000000000e+00 -1.9408647331459764e+02 5.3583912239499023e+00 -1.6120726832243079e+02 0 0 0
6177 177 4 0.0000000000000000e+00 -1.8738618972278431e+02 8.6213804819647635e+00 -1.5109234687919644e+02 0 0 0
6176 177 4 0.0000000000000000e+00 -1.8159742356287421e+02 1.0331632933553572e+00 -1.4887666329243029e+02 0 0 0
2493 72 2 0.0000000000000000e+00 -1.7485949310856776e+02 7.6756281731476399e+00 -1.5698110183932616e+02 0 0 0
6173 177 4 0.0000000000000000e+00 -1.6255691715000296e+02 3.3459417340734245e+00 -1.5276793820652819e+02 0 0 0
6172 177 4 0.0000000000000000e+00 -1.6267373987510385e+02 1.0365404551053075e+01 -1.6014119524903580e+02 0 0 0
6194 177 4 0.0000000000000000e+00 -9.6094670698009708e+01 1.2271585786887080e+01 -1.5394968655891108e+02 0 0 0
6179 177 4 0.0000000000000000e+00 -2.0428015872959267e+02 1.6564986973248093e+01 -1.5035335758646116e+02 0 0 0
2494 72 2 0.0000000000000000e+00 -1.7444880822188637e+02 1.6544889341569508e+01 -1.6181182562855275e+02 0 0 0
2503 72 1 0.0000000000000000e+00 -1.5196903695119622e+02 2.1673195288363008e+01 -1.5560845208455072e+02 0 0 0
6542 187 3 0.0000000000000000e+00 -1.4202150326815567e+02 2.2923870018293751e+01 -1.5149693447881128e+02 0 0 0
6193 177 4 0.0000000000000000e+00 -1.0551113437157301e+02 1.6783775901556538e+01 -1.5261940597517432e+02 0 0 0
2505 72 2 0.0000000000000000e+00 -1.5671544508455648e+02 4.0313954911228244e+01 -1.5962798705920463e+02 0 0 0
2504 72 2 0.0000000000000000e+00 -1.5371992436450896e+02 3.0701872956984857e+01 -1.5877325710185303e+02 0 0 0
6543 187 4 0.0000000000000000e+00 -1.4335699926706769e+02 3.1911222350695471e+01 -1.5619606320053268e+02 0 0 0
2506 72 2 0.0000000000000000e+00 -1.5500888515568400e+02 4.9473457847581990e+01 -1.5657939137056940e+02 0 0 0
6544 187 4 0.0000000000000000e+00 -1.4280904286205961e+02 4.1157804211076034e+01 -1.5279180261514622e+02 0 0 0
6545 187 4 0.0000000000000000e+00 -1.3912140585590700e+02 5.0176975020472028e+01 -1.5427930771348099e+02 0 0 0
3202 92 2 0.0000000000000000e+00 -1.9283155796413041e+01 4.2511189752711104e+01 -1.5475373795766944e+02 0 0 0
6246 179 4 0.0000000000000000e+00 -2.5144786492252399e+02 -1.0889582494008008e+02 -1.3763721347555011e+02 0 0 0
2161 62 2 0.0000000000000000e+00 -3.8664747250720062e+01 -1.1065919464185068e+02 -1.3650219877531975e+02 0 0 0
6248 179 3 0.0000000000000000e+00 -2.6728977870398910e+02 -1.0034226315181633e+02 -1.4762860925174206e+02 0 0 0