LAMMPS data file via write_data, version 5 Jun 2019, timestep = 310000000

7000 atoms
4 atom types
7262 bonds
3 bond types
6600 angles
2 angle types

-5.0000000000000000e+02 5.0000000000000000e+02 xlo xhi
-5.0000000000000000e+02 5.0000000000000000e+02 ylo yhi
-5.0000000000000000e+02 5.0000000000000000e+02 zlo zhi

Masses

1 1000
2 1000
3 1000
4 1000

Pair Coeffs # lj/cut

1 0.178 10
2 0.178 10
3 0.178 10
4 0.178 10

Angle Coeffs # cosine

1 2
2 2

Atoms # full

6265 179 4 0.0000000000000000e+00 -4.3347734944303866e+01 -1.3661863420561272e+02 -2.3919768812435672e+02 0 0 0
6264 179 4 0.0000000000000000e+00 -4.7507591883587658e+01 -1.3787195675899511e+02 -2.3035579116845076e+02 0 0 0
6263 179 4 0.0000000000000000e+00 -5.2764129596842800e+01 -1.3902935112628137e+02 -2.2120683311118265e+02 0 0 0
2810 81 2 0.0000000000000000e+00 -6.3180364158530246e+01 -1.2112009138098686e+02 -2.2106091268401488e+02 0 0 0
2809 81 2 0.0000000000000000e+00 -6.0025076131172057e+01 -1.1420780478592148e+02 -2.2727765364515872e+02 0 0 0
2808 81 2 0.0000000000000000e+00 -5.0685761457907944e+01 -1.1282366249534354e+02 -2.2423037085993437e+02 0 0 0
2807 81 2 0.0000000000000000e+00 -4.2536230442312593e+01 -1.0711345574154089e+02 -2.2240068415323316e+02 0 0 0
6262 179 3 0.0000000000000000e+00 -5.5664052416666415e+01 -1.3580620983912809e+02 -2.1198604647781326e+02 0 0 0
6261 179 4 0.0000000000000000e+00 -6.1908963093528342e+01 -1.3175466049191348e+02 -2.0553979378819167e+02 0 0 0
2812 81 2 0.0000000000000000e+00 -5.3072901119887483e+01 -1.2498824651497877e+02 -2.0361152459666488e+02 0 0 0
2811 81 1 0.0000000000000000e+00 -5.8951589087379865e+01 -1.2417789633572632e+02 -2.1195556478183087e+02 0 0 0
6260 179 4 0.0000000000000000e+00 -6.0699348705601210e+01 -1.2582016302568140e+02 -1.9765090084078051e+02 0 0 0
6259 179 4 0.0000000000000000e+00 -5.8493005114131755e+01 -1.2134348672805150e+02 -1.8914872933483815e+02 0 0 0
2813 81 2 0.0000000000000000e+00 -4.7614121394276317e+01 -1.2800677652650504e+02 -1.9587742329224520e+02 0 0 0
6538 187 4 0.0000000000000000e+00 -1.2427778604117771e+02 -6.0360329539250756e+01 -1.9657619242893117e+02 0 0 0
6537 187 4 0.0000000000000000e+00 -1.1534588456543111e+02 -5.9946941910211450e+01 -2.0123042637131809e+02 0 0 0
6539 187 4 0.0000000000000000e+00 -1.3346793549058899e+02 -5.7733875377350813e+01 -1.9582588226253776e+02 0 0 0
6536 187 4 0.0000000000000000e+00 -1.0665509452608586e+02 -5.9253242817661743e+01 -1.9580080377976074e+02 0 0 0
6535 187 3 0.0000000000000000e+00 -1.0180594243327086e+02 -5.3594890860734111e+01 -1.8912973388031031e+02 0 0 0
1752 51 2 0.0000000000000000e+00 -3.6670088962286194e+01 -2.8309557449783718e+01 -1.9311570377530282e+02 0 0 0
6258 179 4 0.0000000000000000e+00 -5.7977167950830406e+01 -1.1991988375915568e+02 -1.7961046985361972e+02 0 0 0
2814 81 2 0.0000000000000000e+00 -4.6762885551984780e+01 -1.2376560237380971e+02 -1.8657903072839795e+02 0 0 0
2815 81 2 0.0000000000000000e+00 -4.5634755963446914e+01 -1.2756086269448436e+02 -1.7690087206173271e+02 0 0 0
5565 159 4 0.0000000000000000e+00 -1.1562706999703073e+02 -9.9605452994245852e+01 -1.7521499610553676e+02 0 0 0
2932 84 2 0.0000000000000000e+00 -1.5520517502056211e+02 -6.1061580802353596e+01 -1.7549904397161504e+02 0 0 0
1523 44 1 0.0000000000000000e+00 -1.0585932822500982e+02 -5.9883698310151956e+01 -1.8050867117502492e+02 0 0 0
2931 84 2 0.0000000000000000e+00 -1.5438298357230292e+02 -5.2537346735541092e+01 -1.8080856265955308e+02 0 0 0
6540 187 4 0.0000000000000000e+00 -1.3782256824466930e+02 -5.8478029878061562e+01 -1.8713082669589355e+02 0 0 0
6541 187 4 0.0000000000000000e+00 -1.4175144193123592e+02 -5.6755460393901323e+01 -1.7857121333275609e+02 0 0 0
1524 44 2 0.0000000000000000e+00 -9.6276717194787054e+01 -5.8610201124473953e+01 -1.8184394473011733e+02 0 0 0
1525 44 2 0.0000000000000000e+00 -9.1795929112333269e+01 -4.9338689033393969e+01 -1.8126058791184695e+02 0 0 0
4756 136 4 0.0000000000000000e+00 -3.9604853070370602e+01 -4.7102393504453971e+01 -1.7580080248691709e+02 0 0 0
2930 84 1 0.0000000000000000e+00 -1.4714347925422885e+02 -4.5470025439128420e+01 -1.8060974789137978e+02 0 0 0
2929 84 2 0.0000000000000000e+00 -1.4594840516588064e+02 -3.5814827533917168e+01 -1.8087986918304964e+02 0 0 0
6533 187 4 0.0000000000000000e+00 -1.0708679250254464e+02 -3.6782117120789692e+01 -1.8016753291543168e+02 0 0 0
6534 187 4 0.0000000000000000e+00 -1.0381033716723077e+02 -4.4515103657373857e+01 -1.8583786335399554e+02 0 0 0
1526 44 2 0.0000000000000000e+00 -8.6179767027583893e+01 -4.2924431507678925e+01 -1.7554495870597518e+02 0 0 0
4757 136 3 0.0000000000000000e+00 -4.4631558695463369e+01 -3.8584624478181823e+01 -1.7608851273290807e+02 0 0 0
6532 187 4 0.0000000000000000e+00 -1.1490631742208296e+02 -3.0786330246342157e+01 -1.7665873849133905e+02 0 0 0
1753 51 2 0.0000000000000000e+00 -4.4637158578424099e+01 -2.9395454199931944e+01 -1.8700231100209666e+02 0 0 0
1754 51 1 0.0000000000000000e+00 -4.9495917686443207e+01 -2.9091224326473299e+01 -1.7862051548773275e+02 0 0 0
1535 44 2 0.0000000000000000e+00 -6.9913812997672039e+01 -5.4127655485074140e+00 -1.8084751141583260e+02 0 0 0
1537 44 1 0.0000000000000000e+00 -8.8786019670627496e+01 3.1935676878239916e-01 -1.7799354853033375e+02 0 0 0
1536 44 2 0.0000000000000000e+00 -7.9762809278954919e+01 -3.9539915281157385e+00 -1.8108589125368204e+02 0 0 0
482 14 2 0.0000000000000000e+00 -6.2149277466988053e+01 4.6919042415488432e+00 -1.7979244653109458e+02 0 0 0
483 14 2 0.0000000000000000e+00 -5.6817378878098225e+01 -3.8486402969934068e+00 -1.7633051547109062e+02 0 0 0
6189 177 4 0.0000000000000000e+00 -1.4657613031476347e+02 1.9312527267863619e+01 -1.7715059847932622e+02 0 0 0
1722 50 2 0.0000000000000000e+00 -1.2715364374915244e+02 1.9976971338212767e+01 -1.7486138890399417e+02 0 0 0
480 14 1 0.0000000000000000e+00 -5.2953073684577426e+01 2.0914316629037195e+01 -1.7559358641785266e+02 0 0 0
481 14 2 0.0000000000000000e+00 -5.8716393310340735e+01 1.3883895796684282e+01 -1.7869014877551908e+02 0 0 0
6250 179 4 0.0000000000000000e+00 -8.0199303393110597e+01 -1.3908331317461406e+02 -1.6635807094134481e+02 0 0 0
6251 179 4 0.0000000000000000e+00 -8.4440340125609936e+01 -1.3003685095982931e+02 -1.6909810482554590e+02 0 0 0
6252 179 4 0.0000000000000000e+00 -8.7729337346122705e+01 -1.2310220166569475e+02 -1.6206403906569923e+02 0 0 0
6257 179 4 0.0000000000000000e+00 -5.6116848234053407e+01 -1.1810770258663690e+02 -1.7036705183790949e+02 0 0 0
2816 81 2 0.0000000000000000e+00 -4.8092641225790835e+01 -1.2658300603415343e+02 -1.6742062795857632e+02 0 0 0
6256 179 4 0.0000000000000000e+00 -5.8517557094327920e+01 -1.1303941697386868e+02 -1.6340990748548825e+02 0 0 0
5562 159 3 0.0000000000000000e+00 -1.3014016845937545e+02 -9.1268066314766912e+01 -1.6369098002368554e+02 0 0 0
5564 159 4 0.0000000000000000e+00 -1.1657283540231865e+02 -9.6836056076583560e+01 -1.6567347011812097e+02 0 0 0
2093 60 2 0.0000000000000000e+00 -4.5669330279547879e+01 -9.3156257701232050e+01 -1.6423096395710226e+02 0 0 0
5561 159 4 0.0000000000000000e+00 -1.3844261558157390e+02 -8.6491880230576911e+01 -1.6296135836992826e+02 0 0 0
2076 60 1 0.0000000000000000e+00 -8.3934341615642182e+01 -7.9896485108557854e+01 -1.6132754235998587e+02 0 0 0
2077 60 2 0.0000000000000000e+00 -7.6958244170617775e+01 -8.1699431881478574e+01 -1.6860653917026318e+02 0 0 0
2078 60 2 0.0000000000000000e+00 -6.7129621672533730e+01 -8.2034965216131866e+01 -1.7027490115681616e+02 0 0 0
2067 60 2 0.0000000000000000e+00 -5.3346107777732080e+01 -7.7901085829209805e+01 -1.6467266740996550e+02 0 0 0
2079 60 2 0.0000000000000000e+00 -6.2001968720767280e+01 -8.4278743614549384e+01 -1.6214485988291526e+02 0 0 0
2933 84 2 0.0000000000000000e+00 -1.5085246614958879e+02 -6.2543546935866672e+01 -1.6762858580431418e+02 0 0 0
2934 84 2 0.0000000000000000e+00 -1.4421891462676786e+02 -6.8411483750140803e+01 -1.6238088213138278e+02 0 0 0
1522 44 2 0.0000000000000000e+00 -1.0537376337566118e+02 -6.3347292582872470e+01 -1.7100355415426975e+02 0 0 0
1521 44 2 0.0000000000000000e+00 -1.0202682638252747e+02 -6.2899015115961831e+01 -1.6171362381381826e+02 0 0 0
2074 60 2 0.0000000000000000e+00 -7.8397845640980108e+01 -6.0497089770730071e+01 -1.6296585411588194e+02 0 0 0
2075 60 2 0.0000000000000000e+00 -8.1716922839659546e+01 -6.9888339200426060e+01 -1.6249529349894573e+02 0 0 0
5539 159 4 0.0000000000000000e+00 -7.1858580458722528e+01 -7.1930075135331251e+01 -1.6196962742326158e+02 0 0 0
5538 159 4 0.0000000000000000e+00 -6.2783647718107211e+01 -6.7787540414194140e+01 -1.6370645560684090e+02 0 0 0
2066 60 2 0.0000000000000000e+00 -4.5351065826087748e+01 -7.1214785998951456e+01 -1.6683646253073385e+02 0 0 0
6542 187 3 0.0000000000000000e+00 -1.3805570695012378e+02 -4.8642043453322621e+01 -1.7444717448457922e+02 0 0 0
2073 60 2 0.0000000000000000e+00 -7.4807771276035410e+01 -5.1301200610876201e+01 -1.6330628965728550e+02 0 0 0
2072 60 2 0.0000000000000000e+00 -6.5970123833738626e+01 -4.7524525580289300e+01 -1.6195761567598871e+02 0 0 0
4754 136 4 0.0000000000000000e+00 -4.7948592983909045e+01 -5.8917245579294324e+01 -1.6332118109486285e+02 0 0 0
4755 136 4 0.0000000000000000e+00 -4.5555864294863440e+01 -5.4299151918696147e+01 -1.7216005356967625e+02 0 0 0
6543 187 4 0.0000000000000000e+00 -1.4005293743571565e+02 -3.9429688168314620e+01 -1.7023224430388095e+02 0 0 0
6544 187 4 0.0000000000000000e+00 -1.4010413171189896e+02 -3.4171710952342281e+01 -1.6189610227019338e+02 0 0 0
1527 44 2 0.0000000000000000e+00 -8.0134306726915895e+01 -4.3352600420041021e+01 -1.6819914067437901e+02 0 0 0
4759 136 4 0.0000000000000000e+00 -4.2449683792834172e+01 -3.6113465683110483e+01 -1.6193605343735453e+02 0 0 0
4758 136 4 0.0000000000000000e+00 -3.9203300908955590e+01 -3.2813476823053634e+01 -1.7069245626001052e+02 0 0 0
2928 84 2 0.0000000000000000e+00 -1.4667402300716248e+02 -2.8421566630718498e+01 -1.7355057253234742e+02 0 0 0
2927 84 2 0.0000000000000000e+00 -1.4020990991600388e+02 -2.4215497661737011e+01 -1.6728294396253227e+02 0 0 0
2926 84 2 0.0000000000000000e+00 -1.3051762487109352e+02 -2.0652618946328239e+01 -1.6658594371774316e+02 0 0 0
6531 187 4 0.0000000000000000e+00 -1.1382800967503073e+02 -2.1389360804813002e+01 -1.7337056479544410e+02 0 0 0
1532 44 2 0.0000000000000000e+00 -5.3793868663884886e+01 -2.1557599097949847e+01 -1.6184619730823673e+02 0 0 0
1755 51 2 0.0000000000000000e+00 -4.6602118634800533e+01 -2.2889482682053849e+01 -1.7132528116001629e+02 0 0 0
1756 51 2 0.0000000000000000e+00 -4.2421576626366956e+01 -2.0116298308683199e+01 -1.6221427662084548e+02 0 0 0
2925 84 2 0.0000000000000000e+00 -1.3258409657847676e+02 -1.1459872824448727e+01 -1.6412216170020790e+02 0 0 0
6530 187 4 0.0000000000000000e+00 -1.1320832435245352e+02 -1.1550962447627436e+01 -1.7187298139361653e+02 0 0 0
6529 187 4 0.0000000000000000e+00 -1.0619081162739141e+02 -5.1258492345886557e+00 -1.7416784577061040e+02 0 0 0
1534 44 2 0.0000000000000000e+00 -6.4499617924025486e+01 -1.1650568033629011e+01 -1.7445827073022650e+02 0 0 0
1533 44 2 0.0000000000000000e+00 -5.5887222226646593e+01 -1.4522963541022849e+01 -1.6898189161673844e+02 0 0 0
3197 92 2 0.0000000000000000e+00 -5.8038232549425793e+01 -5.0929279109497969e+00 -1.6295297155240485e+02 0 0 0
6186 177 4 0.0000000000000000e+00 -1.4776509972576864e+02 -2.8312352871116273e+00 -1.6965890533586793e+02 0 0 0
6187 177 4 0.0000000000000000e+00 -1.3912438740906808e+02 2.2689656215499276e+00 -1.7147811345118745e+02 0 0 0
6185 177 3 0.0000000000000000e+00 -1.4536055728846102e+02 2.3689909175708825e+00 -1.6131756203210563e+02 0 0 0
6528 187 3 0.0000000000000000e+00 -9.8187853661812142e+01 -2.3107190837644181e-01 -1.7198674402447227e+02 0 0 0
6527 187 4 0.0000000000000000e+00 -9.3962275594860472e+01 6.2955465151363317e+00 -1.6505008033953291e+02 0 0 0
3196 92 1 0.0000000000000000e+00 -6.7485824213714466e+01 -2.4243828203082964e+00 -1.6142665623960650e+02 0 0 0
3195 92 2 0.0000000000000000e+00 -7.6145730896195005e+01 1.3386036476864467e+00 -1.6502665109901415e+02 0 0 0
484 14 2 0.0000000000000000e+00 -4.8872472807104074e+01 -1.3033169103973450e+00 -1.7094073653444312e+02 0 0 0
485 14 2 0.0000000000000000e+00 -4.0447148679749581e+01 -4.6349829994500569e-01 -1.6458349566068793e+02 0 0 0
6188 177 4 0.0000000000000000e+00 -1.4233460219167117e+02 1.1969841618373005e+01 -1.7216713394403752e+02 0 0 0
1724 50 2 0.0000000000000000e+00 -1.3949243350427062e+02 1.6889812653755712e+01 -1.6358480422815515e+02 0 0 0
1723 50 2 0.0000000000000000e+00 -1.3347533656739913e+02 1.4240086826987595e+01 -1.7062920078496759e+02 0 0 0
1540 44 2 0.0000000000000000e+00 -1.0727412973115997e+02 1.7552896739786370e+01 -1.6893623217392391e+02 0 0 0
1539 44 2 0.0000000000000000e+00 -9.7787866500484824e+01 1.4664492642590167e+01 -1.7010301664570719e+02 0 0 0
1538 44 2 0.0000000000000000e+00 -9.0303168270389165e+01 9.5950728754971699e+00 -1.7432279802796793e+02 0 0 0
6023 173 4 0.0000000000000000e+00 -5.9472749157977603e+01 1.8618241813455892e+01 -1.6452182003948568e+02 0 0 0
2821 81 2 0.0000000000000000e+00 -5.5549569599070772e+01 -1.5572373461791975e+02 -1.4776188448980673e+02 0 0 0
2820 81 2 0.0000000000000000e+00 -5.6592424237486604e+01 -1.4834918607758294e+02 -1.5482546177118041e+02 0 0 0
6249 179 4 0.0000000000000000e+00 -7.8723916109193439e+01 -1.3792705223284187e+02 -1.5627493399677709e+02 0 0 0
6248 179 3 0.0000000000000000e+00 -7.0560239212746154e+01 -1.3483143294104954e+02 -1.5153485184968889e+02 0 0 0
2817 81 2 0.0000000000000000e+00 -5.2644374954733053e+01 -1.3088465667083037e+02 -1.5994275769550521e+02 0 0 0
2819 81 2 0.0000000000000000e+00 -6.2829093357244460e+01 -1.4187269263761192e+02 -1.6076686523323113e+02 0 0 0
2818 81 1 0.0000000000000000e+00 -6.2036286375976630e+01 -1.3245344039706339e+02 -1.5830476756998482e+02 0 0 0
6247 179 4 0.0000000000000000e+00 -6.1404417751573497e+01 -1.3166013027948344e+02 -1.4801152669714668e+02 0 0 0
6253 179 4 0.0000000000000000e+00 -8.2026970715410243e+01 -1.1681032904953686e+02 -1.5707664924160318e+02 0 0 0
2940 84 2 0.0000000000000000e+00 -1.0229864672847550e+02 -1.0758968363493413e+02 -1.4960322687751122e+02 0 0 0
6255 179 3 0.0000000000000000e+00 -6.6302517631849696e+01 -1.1243560572819007e+02 -1.5613928438926897e+02 0 0 0
6254 179 4 0.0000000000000000e+00 -7.5903194275052172e+01 -1.0965363931132134e+02 -1.5467207737506376e+02 0 0 0
2082 60 2 0.0000000000000000e+00 -5.7472484109976421e+01 -1.1085144418655919e+02 -1.5247751785639932e+02 0 0 0
2081 60 2 0.0000000000000000e+00 -5.9317090498034275e+01 -1.0264485912827683e+02 -1.5645186224956743e+02 0 0 0
5563 159 4 0.0000000000000000e+00 -1.2396592580613004e+02 -9.8574203262340490e+01 -1.5923673945160940e+02 0 0 0
2937 84 1 0.0000000000000000e+00 -1.2326499668233558e+02 -8.7390550584923048e+01 -1.5557848436260872e+02 0 0 0
2939 84 2 0.0000000000000000e+00 -1.0780555510058203e+02 -9.8970166784574829e+01 -1.5129426876041711e+02 0 0 0
2938 84 2 0.0000000000000000e+00 -1.1625529373786335e+02 -9.3221790916203020e+01 -1.5176951164127507e+02 0 0 0
2080 60 2 0.0000000000000000e+00 -5.7623456118639282e+01 -9.2957796127191344e+01 -1.5911233259065719e+02 0 0 0
6315 181 4 0.0000000000000000e+00 -3.9359929682947623e+01 -8.7885538692491409e+01 -1.5252955673669931e+02 0 0 0
2092 60 2 0.0000000000000000e+00 -4.8845168800080280e+01 -8.7601270346788311e+01 -1.5696428669015339e+02 0 0 0
5560 159 4 0.0000000000000000e+00 -1.4635470826674995e+02 -8.5684453312927957e+01 -1.5730978025298941e+02 0 0 0
2935 84 2 0.0000000000000000e+00 -1.3707007086408717e+02 -7.5631802256158380e+01 -1.6008160018049620e+02 0 0 0
5559 159 4 0.0000000000000000e+00 -1.4177658035996339e+02 -8.1553558529498602e+01 -1.4942447934036107e+02 0 0 0
2936 84 2 0.0000000000000000e+00 -1.2849851655089887e+02 -7.8931392918229989e+01 -1.5639197684164998e+02 0 0 0
5541 159 3 0.0000000000000000e+00 -8.2029158514616711e+01 -7.7154198835881701e+01 -1.5054489735494170e+02 0 0 0
5540 159 4 0.0000000000000000e+00 -7.3892621743075878e+01 -7.9855448117951283e+01 -1.5608799835877392e+02 0 0 0
2091 60 2 0.0000000000000000e+00 -5.6996090414072469e+01 -8.1537519077210135e+01 -1.5550015184038170e+02 0 0 0
2090 60 1 0.0000000000000000e+00 -6.3741490698393442e+01 -7.5379840217080726e+01 -1.5153435242510244e+02 0 0 0
5433 156 4 0.0000000000000000e+00 -4.6300821077267109e+01 -7.5358253731586714e+01 -1.5182400092896330e+02 0 0 0
2532 73 2 0.0000000000000000e+00 -1.7610626539823565e+02 -6.3306882873943891e+01 -1.6111390386260717e+02 0 0 0
3729 107 4 0.0000000000000000e+00 -1.7338137979996827e+02 -7.0531284217272244e+01 -1.5198192089642004e+02 0 0 0
3728 107 3 0.0000000000000000e+00 -1.6367011230895741e+02 -6.7580455760624091e+01 -1.5310532592867165e+02 0 0 0
3727 107 4 0.0000000000000000e+00 -1.5368221397442858e+02 -6.7540663813368781e+01 -1.4960822109490172e+02 0 0 0
1520 44 2 0.0000000000000000e+00 -1.0086012192488620e+02 -6.5798086806947722e+01 -1.5209277611959686e+02 0 0 0
2068 60 2 0.0000000000000000e+00 -5.4052380065753823e+01 -6.9906339397671900e+01 -1.5767080705832043e+02 0 0 0
2069 60 1 0.0000000000000000e+00 -5.4244228302431225e+01 -6.4370205755377498e+01 -1.4933600093120268e+02 0 0 0
5537 159 4 0.0000000000000000e+00 -6.0477654950786793e+01 -6.1994765088589297e+01 -1.5654427411518901e+02 0 0 0
5434 156 4 0.0000000000000000e+00 -3.9061225855209308e+01 -7.2013393529114055e+01 -1.5709190315709395e+02 0 0 0
2534 73 2 0.0000000000000000e+00 -1.9127841672998963e+02 -5.6349347313747117e+01 -1.5004664616332568e+02 0 0 0
2535 73 2 0.0000000000000000e+00 -1.9158725466870087e+02 -4.6951291017235427e+01 -1.5092414125391528e+02 0 0 0
2533 73 2 0.0000000000000000e+00 -1.8203031531843871e+02 -5.8829326023891333e+01 -1.5444100635917539e+02 0 0 0
2531 73 1 0.0000000000000000e+00 -1.6998465568292031e+02 -5.8506462340518269e+01 -1.5479460941878654e+02 0 0 0
5536 159 4 0.0000000000000000e+00 -6.5660210148257221e+01 -5.5111473798593302e+01 -1.5109104414202244e+02 0 0 0
2070 60 2 0.0000000000000000e+00 -5.3054922989639259e+01 -5.4725806988721907e+01 -1.5225360220003913e+02 0 0 0
2071 60 2 0.0000000000000000e+00 -5.7125845811408418e+01 -4.7010550048876219e+01 -1.5682124043039758e+02 0 0 0
5535 159 4 0.0000000000000000e+00 -5.8705136241330784e+01 -4.8611227136513293e+01 -1.4759518831450220e+02 0 0 0
4753 136 4 0.0000000000000000e+00 -4.3021459387117005e+01 -5.3329161991315829e+01 -1.5669658950190558e+02 0 0 0
4752 136 4 0.0000000000000000e+00 -3.8607396321366821e+01 -4.7508878005279371e+01 -1.4944820802031708e+02 0 0 0
2536 73 2 0.0000000000000000e+00 -1.9262881107853761e+02 -3.7171961442989300e+01 -1.4876396997978910e+02 0 0 0
6545 187 4 0.0000000000000000e+00 -1.3610933584316328e+02 -3.9165954850434296e+01 -1.5355101357087318e+02 0 0 0
4831 139 4 0.0000000000000000e+00 -8.9093819385485702e+01 -3.7602986792220456e+01 -1.4821107619756708e+02 0 0 0
1528 44 2 0.0000000000000000e+00 -7.6768503780132306e+01 -4.0182126777835009e+01 -1.5948185654074922e+02 0 0 0
1529 44 2 0.0000000000000000e+00 -6.9960850696320193e+01 -3.5725919133749358e+01 -1.5421129431774659e+02 0 0 0
4760 136 4 0.0000000000000000e+00 -4.5249130555166268e+01 -3.6324613613267871e+01 -1.5225431307698423e+02 0 0 0
2537 73 2 0.0000000000000000e+00 -1.9509316978740264e+02 -2.7680745429697122e+01 -1.4852120213375258e+02 0 0 0
1530 44 1 0.0000000000000000e+00 -6.2149725569523177e+01 -3.1675216461982274e+01 -1.4989996155392706e+02 0 0 0
1531 44 2 0.0000000000000000e+00 -5.4283776972004034e+01 -2.8853524341697618e+01 -1.5500115820012994e+02 0 0 0
5350 153 4 0.0000000000000000e+00 -5.2677958533122521e+01 -5.4178540128448835e+00 -1.4910494670767795e+02 0 0 0
3198 92 2 0.0000000000000000e+00 -4.9837391222431052e+01 -8.9520821667977870e+00 -1.5829912384552696e+02 0 0 0
3199 92 2 0.0000000000000000e+00 -4.0726618560602311e+01 -1.0109326866584835e+01 -1.5601783846324730e+02 0 0 0
6184 177 4 0.0000000000000000e+00 -1.4827995141360864e+02 2.4502485867404649e+00 -1.5148951619925387e+02 0 0 0
2924 84 2 0.0000000000000000e+00 -1.3550483798732429e+02 -2.3852284077789885e+00 -1.5987973738659755e+02 0 0 0
2923 84 1 0.0000000000000000e+00 -1.3760781721724337e+02 5.0235339876378617e+00 -1.5359844746706622e+02 0 0 0
3193 92 2 0.0000000000000000e+00 -9.1413268097235829e+01 -3.0085634578297427e+00 -1.5431878512179765e+02 0 0 0
6525 187 4 0.0000000000000000e+00 -9.1500681273742742e+01 7.3158534638093915e+00 -1.4822388477897195e+02 0 0 0
3194 92 2 0.0000000000000000e+00 -8.5047011003999486e+01 1.1316327837663309e+00 -1.6081763331994418e+02 0 0 0
5349 153 4 0.0000000000000000e+00 -5.4823227222198298e+01 3.7748167039132463e+00 -1.5426144774894840e+02 0 0 0
3742 107 3 0.0000000000000000e+00 -1.5939281422651595e+02 2.2624904037083414e+01 -1.4825959718485328e+02 0 0 0
1726 50 1 0.0000000000000000e+00 -1.4918507085650307e+02 1.7985194923003352e+01 -1.4780671955243352e+02 0 0 0
1725 50 2 0.0000000000000000e+00 -1.4487917902747742e+02 1.4739747943159339e+01 -1.5597739426891496e+02 0 0 0
2922 84 2 0.0000000000000000e+00 -1.3859457121674563e+02 1.4015056109983075e+01 -1.4889203302703029e+02 0 0 0
6526 187 4 0.0000000000000000e+00 -9.0026455280245699e+01 1.1252981017622156e+01 -1.5729490225085942e+02 0 0 0
6022 173 4 0.0000000000000000e+00 -6.5731060703420241e+01 1.4832779669413522e+01 -1.5682051360101343e+02 0 0 0
5348 153 4 0.0000000000000000e+00 -4.7789293816944244e+01 1.1736521295899093e+01 -1.5372497192855303e+02 0 0 0
5347 153 4 0.0000000000000000e+00 -4.1853006857138247e+01 1.9048369053164652e+01 -1.5086530615395216e+02 0 0 0
2822 81 2 0.0000000000000000e+00 -5.6589590084479283e+01 -1.5785297315855425e+02 -1.3849595557832853e+02 0 0 0
6301 181 4 0.0000000000000000e+00 -7.2508760079155408e+01 -1.4534844301570357e+02 -1.3418556948862502e+02 0 0 0
6246 179 4 0.0000000000000000e+00 -6.0434236145070678e+01 -1.2882480825103463e+02 -1.3879097060916658e+02 0 0 0
2084 60 2 0.0000000000000000e+00 -6.7829301028922984e+01 -1.1476326603278315e+02 -1.3633150862544974e+02 0 0 0
2083 60 1 0.0000000000000000e+00 -6.2944367116226225e+01 -1.1183286260637072e+02 -1.4492843701578525e+02 0 0 0
1374 40 2 0.0000000000000000e+00 -1.0871103456939917e+02 -9.8580978792667750e+01 -1.3628419878648978e+02 0 0 0
1373 40 2 0.0000000000000000e+00 -9.9491771677892004e+01 -9.5394626722135357e+01 -1.3453936460412612e+02 0 0 0
1367 40 2 0.0000000000000000e+00 -8.9621741773833975e+01 -8.8305976732942412e+01 -1.3534431960231672e+02 0 0 0
2087 60 2 0.0000000000000000e+00 -5.8916557372018808e+01 -8.7649145657387351e+01 -1.3729367290770077e+02 0 0 0
6313 181 4 0.0000000000000000e+00 -4.9665212559542539e+01 -8.9038385259108267e+01 -1.3568570832029587e+02 0 0 0
6314 181 4 0.0000000000000000e+00 -4.4822898758236114e+01 -8.7498720722085068e+01 -1.4429767020384182e+02 0 0 0
5558 159 4 0.0000000000000000e+00 -1.3748857232504258e+02 -7.8354114020601315e+01 -1.4111800073585326e+02 0 0 0
1366 40 2 0.0000000000000000e+00 -9.8439516553800445e+01 -8.4141651195495513e+01 -1.3702206025218501e+02 0 0 0
5543 159 4 0.0000000000000000e+00 -9.3943485244884400e+01 -7.4094837840885049e+01 -1.3666035835386739e+02 0 0 0
5542 159 4 0.0000000000000000e+00 -9.0886135358441720e+01 -7.7261985012221814e+01 -1.4571906739664209e+02 0 0 0
2088 60 2 0.0000000000000000e+00 -5.7528872114319604e+01 -7.7532779975939107e+01 -1.3840756437185019e+02 0 0 0
5432 156 4 0.0000000000000000e+00 -4.5194767850365857e+01 -7.6029074934204544e+01 -1.4165956725977702e+02 0 0 0
3730 107 4 0.0000000000000000e+00 -1.8014386627006451e+02 -6.6117073477489072e+01 -1.4583559688198994e+02 0 0 0
3731 107 4 0.0000000000000000e+00 -1.8339560772372033e+02 -6.0678285909400778e+01 -1.3809747404296206e+02 0 0 0
5556 159 4 0.0000000000000000e+00 -1.4696635642378604e+02 -6.3235791189658741e+01 -1.3481433813765290e+02 0 0 0
3726 107 4 0.0000000000000000e+00 -1.4437303560597169e+02 -6.6854785503228314e+01 -1.4624912945911262e+02 0 0 0
5557 159 4 0.0000000000000000e+00 -1.3988054699918098e+02 -7.0395804217260476e+01 -1.3660987108686754e+02 0 0 0
1518 44 2 0.0000000000000000e+00 -8.7757723213750680e+01 -6.2475750619464925e+01 -1.4599735527563300e+02 0 0 0
1517 44 2 0.0000000000000000e+00 -8.4354072641604034e+01 -6.8525076873065672e+01 -1.3922801068643926e+02 0 0 0
2224 64 2 0.0000000000000000e+00 -7.8277510032402304e+01 -5.9413948041081696e+01 -1.3985671547379766e+02 0 0 0
2089 60 2 0.0000000000000000e+00 -6.2270789819223857e+01 -7.0037535933298784e+01 -1.4345388131537624e+02 0 0 0
4743 136 3 0.0000000000000000e+00 -4.7806886503623247e+01 -6.0959768028929240e+01 -1.3977577552699069e+02 0 0 0
4742 136 4 0.0000000000000000e+00 -3.9748585169466729e+01 -6.3763505010468641e+01 -1.4441524864015884e+02 0 0 0
3732 107 4 0.0000000000000000e+00 -1.8869942261597180e+02 -5.2990542666915893e+01 -1.3413770636984790e+02 0 0 0
2530 73 2 0.0000000000000000e+00 -1.6821001583684324e+02 -5.6666414079884220e+01 -1.4539571615165633e+02 0 0 0
2529 73 2 0.0000000000000000e+00 -1.6517226122526699e+02 -5.7430315279530433e+01 -1.3548135345282643e+02 0 0 0
3724 107 4 0.0000000000000000e+00 -1.3992509473795135e+02 -4.8752430178120832e+01 -1.4283480252428276e+02 0 0 0
3725 107 4 0.0000000000000000e+00 -1.4400441056804951e+02 -5.7276373963534915e+01 -1.4662824080570758e+02 0 0 0
1519 44 2 0.0000000000000000e+00 -9.7060785548213474e+01 -5.9142164657616128e+01 -1.4556941688005719e+02 0 0 0
2223 64 1 0.0000000000000000e+00 -8.0343937641425143e+01 -5.0349993828304207e+01 -1.3659424051813912e+02 0 0 0
4744 136 4 0.0000000000000000e+00 -5.3437629275901330e+01 -5.2674018578810454e+01 -1.3972667334973721e+02 0 0 0
3723 107 4 0.0000000000000000e+00 -1.3978460608337011e+02 -3.9169854943229865e+01 -1.4298283176142627e+02 0 0 0
4832 139 4 0.0000000000000000e+00 -9.1884628147345808e+01 -3.7531060855523869e+01 -1.3844892733504628e+02 0 0 0
2221 64 2 0.0000000000000000e+00 -8.0175726123716530e+01 -3.2451048118709657e+01 -1.3831118389019960e+02 0 0 0
2222 64 2 0.0000000000000000e+00 -7.6548860343232491e+01 -4.1089627907641585e+01 -1.3534596548524976e+02 0 0 0
5533 159 4 0.0000000000000000e+00 -6.6202313356497072e+01 -3.5617693238815903e+01 -1.3555982289681674e+02 0 0 0
5534 159 3 0.0000000000000000e+00 -6.2908899707418264e+01 -4.0867033079652053e+01 -1.4328538042245253e+02 0 0 0
2538 73 1 0.0000000000000000e+00 -2.0069829795476525e+02 -2.8501648249067753e+01 -1.3970668621308553e+02 0 0 0
3722 107 4 0.0000000000000000e+00 -1.3976173717673228e+02 -2.9675957413797871e+01 -1.4702063802487058e+02 0 0 0
3721 107 3 0.0000000000000000e+00 -1.3521124504957842e+02 -2.1392029372546506e+01 -1.4536111923018342e+02 0 0 0
1390 40 1 0.0000000000000000e+00 -1.4264529479030006e+02 -1.9763168358007036e+01 -1.3701236983624528e+02 0 0 0
1389 40 2 0.0000000000000000e+00 -1.3420765821690614e+02 -2.4895283833413792e+01 -1.3575997652431212e+02 0 0 0
2220 64 2 0.0000000000000000e+00 -8.4188886882252788e+01 -2.9998123964541893e+01 -1.4640712167593182e+02 0 0 0
2219 64 2 0.0000000000000000e+00 -8.6093809955623144e+01 -2.0232837386125144e+01 -1.4482333588184619e+02 0 0 0
1774 51 2 0.0000000000000000e+00 -3.7683556113600787e+01 -2.7747407410061030e+01 -1.3865345491935778e+02 0 0 0
1775 51 1 0.0000000000000000e+00 -3.6945318230957128e+01 -1.8323113862814363e+01 -1.3626343413759400e+02 0 0 0
5352 153 3 0.0000000000000000e+00 -4.8357855540303476e+01 -1.8359934718793397e+01 -1.3488333637895778e+02 0 0 0
3737 107 4 0.0000000000000000e+00 -1.8235939310141484e+02 -1.5298001349525906e+01 -1.4028509060754962e+02 0 0 0
3738 107 4 0.0000000000000000e+00 -1.7595694314075348e+02 -8.2384526042222568e+00 -1.4222838459574146e+02 0 0 0
1391 40 2 0.0000000000000000e+00 -1.5099792223952821e+02 -1.5007982745378269e+01 -1.3409802731627386e+02 0 0 0
3720 107 4 0.0000000000000000e+00 -1.3446731030967135e+02 -1.1915108308641150e+01 -1.4261365231162335e+02 0 0 0
6523 187 4 0.0000000000000000e+00 -9.5721057129797003e+01 -6.8934432328055957e+00 -1.3512816770573664e+02 0 0 0
2218 64 2 0.0000000000000000e+00 -8.7107079438508990e+01 -1.1719605566817972e+01 -1.4014408272073229e+02 0 0 0
6511 187 4 0.0000000000000000e+00 -6.7651872253129582e+01 -7.0272095569417532e+00 -1.3998632843454664e+02 0 0 0
5340 153 4 0.0000000000000000e+00 -5.7398851738958022e+01 -4.2557458620159805e+00 -1.3467253082284748e+02 0 0 0
5351 153 4 0.0000000000000000e+00 -4.9299704021307285e+01 -1.1222706196776961e+01 -1.4150495929195765e+02 0 0 0
3739 107 4 0.0000000000000000e+00 -1.6890632361070575e+02 -2.2190556661415228e+00 -1.4560778497856609e+02 0 0 0
3740 107 4 0.0000000000000000e+00 -1.6043737206188692e+02 2.8550308139142477e+00 -1.4685673717761455e+02 0 0 0
6183 177 4 0.0000000000000000e+00 -1.4868368580844518e+02 -4.4589399611457925e-01 -1.4149260536447511e+02 0 0 0
3719 107 4 0.0000000000000000e+00 -1.3787639314218907e+02 -3.4394374650197634e+00 -1.4599979623032451e+02 0 0 0
3718 107 4 0.0000000000000000e+00 -1.3934320440714026e+02 5.0532305307164513e+00 -1.4134622055181808e+02 0 0 0
6524 187 4 0.0000000000000000e+00 -9.5396378864959146e+01 -5.8117563351943846e-01 -1.4361922573223356e+02 0 0 0
3192 92 2 0.0000000000000000e+00 -8.4573310592939166e+01 -1.8069480608685020e+00 -1.4720948652128837e+02 0 0 0
3191 92 2 0.0000000000000000e+00 -8.2194253929865837e+01 -1.8742496373369193e+00 -1.3741274027078674e+02 0 0 0
5339 153 4 0.0000000000000000e+00 -6.1195925367273404e+01 2.5715085893466179e+00 -1.4041215143241189e+02 0 0 0
3741 107 4 0.0000000000000000e+00 -1.6026891231390289e+02 1.3002233613866222e+01 -1.4677463263635349e+02 0 0 0
1727 50 2 0.0000000000000000e+00 -1.5407853805969404e+02 1.7803631200097971e+01 -1.3884483576487571e+02 0 0 0
3717 107 4 0.0000000000000000e+00 -1.4027437035162660e+02 1.3098960109585690e+01 -1.3432868255179642e+02 0 0 0
2921 84 2 0.0000000000000000e+00 -1.3540812047941873e+02 2.2723037654333705e+01 -1.4682004766805437e+02 0 0 0
6021 173 4 0.0000000000000000e+00 -6.5876496690550070e+01 1.2600811436681933e+01 -1.4741708195930516e+02 0 0 0
3377 97 2 0.0000000000000000e+00 -6.7381457939144539e+01 2.2107923853504690e+01 -1.4083076921511073e+02 0 0 0