LAMMPS data file via write_data, version 5 Jun 2019, timestep = 360000000

7000 atoms
4 atom types
7266 bonds
3 bond types
6600 angles
2 angle types

-5.0000000000000000e+02 5.0000000000000000e+02 xlo xhi
-5.0000000000000000e+02 5.0000000000000000e+02 ylo yhi
-5.0000000000000000e+02 5.0000000000000000e+02 zlo zhi

Masses

1 1000
2 1000
3 1000
4 1000

Pair Coeffs # lj/cut

1 0.178 10
2 0.178 10
3 0.178 10
4 0.178 10

Angle Coeffs # cosine

1 2
2 2

Atoms # full

1366 40 2 0.0000000000000000e+00 -1.1720715456635635e+02 -7.0764725724956833e+01 -2.2687064889100074e+02 0 0 0
1645 47 2 0.0000000000000000e+00 -5.7797758652324355e+01 -1.2212280068868853e+02 -2.1681849367360761e+02 0 0 0
1644 47 2 0.0000000000000000e+00 -5.5764408647445741e+01 -1.1245897756488004e+02 -2.1858045422740574e+02 0 0 0
1643 47 2 0.0000000000000000e+00 -5.3523179726675984e+01 -1.0357955087990393e+02 -2.1612806547560507e+02 0 0 0
1367 40 2 0.0000000000000000e+00 -1.2229063482372952e+02 -6.7805267733791524e+01 -2.1882713045365153e+02 0 0 0
1368 40 2 0.0000000000000000e+00 -1.2422769912408789e+02 -6.1193163002618093e+01 -2.1088702980623168e+02 0 0 0
4742 136 4 0.0000000000000000e+00 -6.2746477759800662e+01 -1.1335783109115876e+02 -2.0674535116265272e+02 0 0 0
4744 136 4 0.0000000000000000e+00 -7.1323513592792239e+01 -1.0192281672710550e+02 -1.9895206779916163e+02 0 0 0
4743 136 3 0.0000000000000000e+00 -6.6307878874799059e+01 -1.0458537030468382e+02 -2.0737776328875006e+02 0 0 0
4741 136 4 0.0000000000000000e+00 -5.3763770825886752e+01 -1.0870195071657618e+02 -2.0434619819473650e+02 0 0 0
1642 47 1 0.0000000000000000e+00 -5.7730917761643553e+01 -9.8615901041168698e+01 -2.0925102863521283e+02 0 0 0
4746 136 4 0.0000000000000000e+00 -6.7885791227243388e+01 -8.3855965926932441e+01 -1.9675847324928552e+02 0 0 0
1641 47 2 0.0000000000000000e+00 -5.7331065182093262e+01 -9.5475090276720579e+01 -1.9956268249816932e+02 0 0 0
1761 51 1 0.0000000000000000e+00 -4.4247178990851829e+01 -7.0960793191578119e+01 -2.0039157061532524e+02 0 0 0
6241 179 3 0.0000000000000000e+00 -1.3302223301766733e+02 -6.5403295685316763e+01 -1.9821404370382118e+02 0 0 0
1369 40 1 0.0000000000000000e+00 -1.2509473676952551e+02 -5.8291420418367700e+01 -2.0141376832345026e+02 0 0 0
5107 146 3 0.0000000000000000e+00 -3.4428803228524266e+01 -6.4462529920788583e+01 -1.9879021369056539e+02 0 0 0
5901 169 4 0.0000000000000000e+00 -1.7515141479846446e+02 -2.4725435284996394e+01 -2.0346295456529893e+02 0 0 0
5900 169 4 0.0000000000000000e+00 -1.7489468288958096e+02 -1.5583683190957895e+01 -2.0624004651679783e+02 0 0 0
5899 169 4 0.0000000000000000e+00 -1.7301076807289559e+02 -6.7460361477450803e+00 -2.0297132317560173e+02 0 0 0
5898 169 3 0.0000000000000000e+00 -1.6498091589708073e+02 -2.6576647305750560e+00 -1.9687380131745513e+02 0 0 0
2910 84 2 0.0000000000000000e+00 -1.7444267965015291e+02 4.4564226598153676e+00 -2.0079246070434561e+02 0 0 0
2911 84 2 0.0000000000000000e+00 -1.6910567708693790e+02 1.2930855123553997e+01 -2.0153686081587418e+02 0 0 0
4740 136 4 0.0000000000000000e+00 -4.8966530018059359e+01 -1.1046087808295869e+02 -1.9615571867707672e+02 0 0 0
4739 136 4 0.0000000000000000e+00 -4.4045525412041137e+01 -1.1415816791945868e+02 -1.8854959958048181e+02 0 0 0
2066 60 2 0.0000000000000000e+00 -6.6357932029559493e+01 -1.0746337978368624e+02 -1.9218520632940911e+02 0 0 0
2067 60 2 0.0000000000000000e+00 -6.4243693690580145e+01 -1.0162028123405757e+02 -1.8489266615102642e+02 0 0 0
4745 136 4 0.0000000000000000e+00 -7.0107552033454198e+01 -9.3658898616714367e+01 -1.9388118442080989e+02 0 0 0
4747 136 4 0.0000000000000000e+00 -6.5780144626128148e+01 -8.4263544090424872e+01 -1.8687468602929059e+02 0 0 0
1640 47 2 0.0000000000000000e+00 -5.5316700376499469e+01 -8.6524346275840671e+01 -1.9599611875843289e+02 0 0 0
6242 179 4 0.0000000000000000e+00 -1.3190737194251017e+02 -7.4659105899875783e+01 -1.9463625733251766e+02 0 0 0
6244 179 4 0.0000000000000000e+00 -1.1674604479747059e+02 -8.2141653391386583e+01 -1.8435951538759406e+02 0 0 0
6243 179 4 0.0000000000000000e+00 -1.2586830585128037e+02 -7.8313072958780126e+01 -1.8734599142801028e+02 0 0 0
1762 51 2 0.0000000000000000e+00 -5.2386514965774730e+01 -7.1278771977366404e+01 -1.9530675513836954e+02 0 0 0
1639 47 2 0.0000000000000000e+00 -5.1120805009022320e+01 -8.1223505460751653e+01 -1.8870762690696560e+02 0 0 0
1760 51 2 0.0000000000000000e+00 -3.6128948526445349e+01 -7.3976093091653055e+01 -1.9496858378046878e+02 0 0 0
6239 179 4 0.0000000000000000e+00 -1.4464176298138375e+02 -6.2534395697268344e+01 -1.9278628750941488e+02 0 0 0
6240 179 4 0.0000000000000000e+00 -1.3768025218494518e+02 -5.7097590915392480e+01 -1.9584028499016674e+02 0 0 0
6238 179 4 0.0000000000000000e+00 -1.3769849401470867e+02 -6.5638170832057682e+01 -1.8623278046283849e+02 0 0 0
1370 40 2 0.0000000000000000e+00 -1.2447394979446550e+02 -5.9487775706957144e+01 -1.9122944636898967e+02 0 0 0
1371 40 2 0.0000000000000000e+00 -1.1827797868426609e+02 -6.0271345917583737e+01 -1.8361496868641609e+02 0 0 0
1372 40 2 0.0000000000000000e+00 -1.0955592952652633e+02 -5.7331694747097309e+01 -1.8320226917393771e+02 0 0 0
1763 51 2 0.0000000000000000e+00 -5.0973433581751479e+01 -6.3711976382125094e+01 -1.8892814321792298e+02 0 0 0
5106 146 4 0.0000000000000000e+00 -3.4358298515643298e+01 -6.4299586482429063e+01 -1.8881435320643087e+02 0 0 0
2906 84 2 0.0000000000000000e+00 -1.9271855389755993e+02 -2.3310788463598215e+01 -1.8706720071198848e+02 0 0 0
2907 84 2 0.0000000000000000e+00 -1.8399908626898821e+02 -2.0414549207756693e+01 -1.9095754081563439e+02 0 0 0
5902 169 4 0.0000000000000000e+00 -1.6858491643049729e+02 -2.5066811236958781e+01 -1.9590851954746628e+02 0 0 0
5903 169 4 0.0000000000000000e+00 -1.6129999946919474e+02 -1.9303146231435267e+01 -1.9167412360309598e+02 0 0 0
5904 169 4 0.0000000000000000e+00 -1.5353057888311261e+02 -2.4451531788322544e+01 -1.8740015272018456e+02 0 0 0
5905 169 3 0.0000000000000000e+00 -1.4457022809358315e+02 -2.1044762554844031e+01 -1.8372781106667989e+02 0 0 0
2909 84 1 0.0000000000000000e+00 -1.7552992791046950e+02 -2.3813076754306191e+00 -1.9440079725285560e+02 0 0 0
2908 84 2 0.0000000000000000e+00 -1.8071249684133608e+02 -1.0566892926759259e+01 -1.9175525772570080e+02 0 0 0
5897 169 4 0.0000000000000000e+00 -1.5908704541139409e+02 -2.7365715259381034e+00 -1.8889923369586708e+02 0 0 0
2913 84 2 0.0000000000000000e+00 -1.5844046633221592e+02 1.1325984447186714e+01 -1.8739091926410987e+02 0 0 0
2914 84 2 0.0000000000000000e+00 -1.5017960714979145e+02 5.6623765756006286e+00 -1.8507626488360580e+02 0 0 0
2912 84 2 0.0000000000000000e+00 -1.6634109924118442e+02 1.5607789867056024e+01 -1.9218291206716049e+02 0 0 0
6545 187 4 0.0000000000000000e+00 -9.3886582301028923e+01 1.9782472612477225e+01 -1.8444801506790162e+02 0 0 0
6544 187 4 0.0000000000000000e+00 -8.6339234688038346e+01 1.2799394752520547e+01 -1.8439956288700097e+02 0 0 0
6022 173 4 0.0000000000000000e+00 -5.1368661814948616e+01 1.4406703625317782e+01 -1.8501030120028196e+02 0 0 0
6023 173 4 0.0000000000000000e+00 -4.3147459456519584e+01 1.9273505108215957e+01 -1.8557887841357149e+02 0 0 0
6024 173 3 0.0000000000000000e+00 -3.4711203713324245e+01 2.4387375521074659e+01 -1.8355692332213360e+02 0 0 0
4737 136 4 0.0000000000000000e+00 -3.6695592981014613e+01 -1.2704494562672463e+02 -1.7577034203328409e+02 0 0 0
4738 136 4 0.0000000000000000e+00 -4.0737144480863954e+01 -1.2112091151330605e+02 -1.8227225851237441e+02 0 0 0
5533 159 4 0.0000000000000000e+00 -3.2963115574871139e+01 -1.1150530888963213e+02 -1.7406811533036324e+02 0 0 0
2069 60 1 0.0000000000000000e+00 -7.8588646732972435e+01 -1.0011027573528295e+02 -1.7337671933031370e+02 0 0 0
2070 60 2 0.0000000000000000e+00 -8.6488658887058151e+01 -1.0631380822779644e+02 -1.7012333696472945e+02 0 0 0
2068 60 2 0.0000000000000000e+00 -6.8979389694161483e+01 -1.0024874461507270e+02 -1.7575325730317167e+02 0 0 0
6245 179 4 0.0000000000000000e+00 -1.1269270954848564e+02 -8.5992750850051820e+01 -1.7657052697392501e+02 0 0 0
4748 136 4 0.0000000000000000e+00 -6.0790350914361795e+01 -8.2999242839825101e+01 -1.7878645908589411e+02 0 0 0
4749 136 4 0.0000000000000000e+00 -5.5188976733492240e+01 -8.6637514917989705e+01 -1.7125114279092870e+02 0 0 0
630 18 2 0.0000000000000000e+00 -6.1771655269579114e+01 -7.1736963845596506e+01 -1.6997550735627885e+02 0 0 0
1638 47 2 0.0000000000000000e+00 -4.5418679335650957e+01 -8.1562455604297654e+01 -1.8101707890649280e+02 0 0 0
1637 47 2 0.0000000000000000e+00 -4.0187475724758329e+01 -7.5732498665361177e+01 -1.7451092015230728e+02 0 0 0
6237 179 4 0.0000000000000000e+00 -1.3216762120060312e+02 -5.9456359481994177e+01 -1.8108103931486679e+02 0 0 0
6236 179 4 0.0000000000000000e+00 -1.3053836670855230e+02 -5.9896835523275421e+01 -1.7119314848974909e+02 0 0 0
1374 40 2 0.0000000000000000e+00 -9.3719813064503541e+01 -5.9116393234793840e+01 -1.7695078589656981e+02 0 0 0
2801 81 2 0.0000000000000000e+00 -7.6747347378853959e+01 -6.7709542029289906e+01 -1.6933694334363719e+02 0 0 0
1764 51 2 0.0000000000000000e+00 -4.9927695092115457e+01 -6.1329334117666214e+01 -1.7965379379005628e+02 0 0 0
1765 51 2 0.0000000000000000e+00 -4.8769639248237787e+01 -6.1431304270910907e+01 -1.6954264041288334e+02 0 0 0
5104 146 4 0.0000000000000000e+00 -3.4984418329659782e+01 -6.4723317838610754e+01 -1.7003626063344328e+02 0 0 0
5105 146 4 0.0000000000000000e+00 -3.4682046057221996e+01 -6.7977995886068456e+01 -1.7932541840196430e+02 0 0 0
1373 40 2 0.0000000000000000e+00 -1.0044341773444447e+02 -5.3393396481941792e+01 -1.8190255289127293e+02 0 0 0
5906 169 4 0.0000000000000000e+00 -1.3493473043200237e+02 -1.9993985187196746e+01 -1.8193729994034834e+02 0 0 0
6540 187 4 0.0000000000000000e+00 -8.8081176206515096e+01 -1.7158027233024782e+01 -1.7417981354049911e+02 0 0 0
3197 92 2 0.0000000000000000e+00 -7.0203142626510314e+01 -1.6835207780185424e+01 -1.7842313203673919e+02 0 0 0
1297 38 2 0.0000000000000000e+00 -5.9650912574632834e+01 -2.5531657051053816e+01 -1.7219309749469357e+02 0 0 0
1298 38 2 0.0000000000000000e+00 -4.9273374640776588e+01 -2.5422082047404778e+01 -1.7270592752284645e+02 0 0 0
1299 38 1 0.0000000000000000e+00 -3.9917397229201043e+01 -2.7972522019388542e+01 -1.6967875471780690e+02 0 0 0
618 18 2 0.0000000000000000e+00 -3.3817948909375495e+01 -2.3957084724599511e+01 -1.7597307553905489e+02 0 0 0
2917 84 2 0.0000000000000000e+00 -1.5079593503283346e+02 -8.7371170199525832e+00 -1.6909782883186912e+02 0 0 0
2916 84 1 0.0000000000000000e+00 -1.4755799415627436e+02 -1.2389337059065731e+01 -1.7783032568332641e+02 0 0 0
2915 84 2 0.0000000000000000e+00 -1.4853777860356109e+02 -2.5433818918614874e+00 -1.7977502278767687e+02 0 0 0
5907 169 4 0.0000000000000000e+00 -1.3112116219754500e+02 -1.1607969367619086e+01 -1.7850439935139408e+02 0 0 0
5908 169 4 0.0000000000000000e+00 -1.3597040518873752e+02 -1.0327982332692617e+01 -1.7021916162629208e+02 0 0 0
6541 187 4 0.0000000000000000e+00 -7.9646009173824780e+01 -1.2489836043271213e+01 -1.7731179049089823e+02 0 0 0
6542 187 3 0.0000000000000000e+00 -7.8336880858814979e+01 -3.0454453627959421e+00 -1.7458136239819981e+02 0 0 0
3196 92 1 0.0000000000000000e+00 -7.2913603309357327e+01 -1.2171225358766259e+01 -1.7015234344014465e+02 0 0 0
3198 92 2 0.0000000000000000e+00 -6.1285427727626626e+01 -1.2106282808908034e+01 -1.7819956847890137e+02 0 0 0
3199 92 2 0.0000000000000000e+00 -5.6807079820230655e+01 -4.4817432835778597e+00 -1.8194869014863292e+02 0 0 0
5767 165 4 0.0000000000000000e+00 -4.1063850971351407e+01 -3.8796429712371809e+00 -1.7145479232339630e+02 0 0 0
5896 169 4 0.0000000000000000e+00 -1.5874216466102399e+02 -5.4832794692359865e-01 -1.7911722463826047e+02 0 0 0
5895 169 4 0.0000000000000000e+00 -1.5644318228443319e+02 1.0031829190652998e-01 -1.6960763773418324e+02 0 0 0
5909 169 4 0.0000000000000000e+00 -1.4004007416711073e+02 -1.5952797411975490e+00 -1.6975117535872522e+02 0 0 0
6543 187 4 0.0000000000000000e+00 -8.2006808003495152e+01 4.3231815237272082e+00 -1.8067239774113642e+02 0 0 0
3200 92 2 0.0000000000000000e+00 -4.7471989262308639e+01 -2.8724366682734975e-01 -1.8201006789319754e+02 0 0 0
3201 92 2 0.0000000000000000e+00 -3.9301997868816258e+01 5.6696553972558013e+00 -1.8064778615338372e+02 0 0 0
3202 92 2 0.0000000000000000e+00 -3.2850740222660825e+01 1.1390280770676364e+01 -1.7519075587219947e+02 0 0 0
5768 165 4 0.0000000000000000e+00 -3.2917385574222436e+01 -1.2802565016787926e+00 -1.7669018996798084e+02 0 0 0
2493 72 2 0.0000000000000000e+00 -1.7532078459473331e+02 2.0918017623902909e+01 -1.6916697067680622e+02 0 0 0
2494 72 2 0.0000000000000000e+00 -1.6967730904970406e+02 1.2848979375270757e+01 -1.7158894313154579e+02 0 0 0
6021 173 4 0.0000000000000000e+00 -5.2908800714941492e+01 1.4194528619756792e+01 -1.7486981805561598e+02 0 0 0
3203 92 1 0.0000000000000000e+00 -3.3132819766742948e+01 2.1570098052614085e+01 -1.7371052633739629e+02 0 0 0
4734 136 4 0.0000000000000000e+00 -4.3649612754141550e+01 -1.3908510923288006e+02 -1.5551974388478865e+02 0 0 0
4735 136 4 0.0000000000000000e+00 -3.5432329534997123e+01 -1.3801529569617145e+02 -1.6194464819431516e+02 0 0 0
4736 136 3 0.0000000000000000e+00 -3.3918446083990638e+01 -1.2890579882856713e+02 -1.6620836449121958e+02 0 0 0
5536 159 4 0.0000000000000000e+00 -4.2856621904326914e+01 -1.1816789901318509e+02 -1.5542621296459546e+02 0 0 0
5534 159 3 0.0000000000000000e+00 -3.2549305027726675e+01 -1.1317482724408318e+02 -1.6392856935559695e+02 0 0 0
6249 179 4 0.0000000000000000e+00 -8.7523939988431380e+01 -1.0020253685347511e+02 -1.5522375444797288e+02 0 0 0
2071 60 2 0.0000000000000000e+00 -8.3238916727032048e+01 -1.0815938930091947e+02 -1.6096402219479441e+02 0 0 0
6251 179 4 0.0000000000000000e+00 -6.9491817808852190e+01 -1.0323292499604159e+02 -1.5741161896605038e+02 0 0 0
4751 136 4 0.0000000000000000e+00 -4.4988202689658642e+01 -9.8808798163340029e+01 -1.6185621271283341e+02 0 0 0
4752 136 4 0.0000000000000000e+00 -3.5961938378509736e+01 -1.0124724094711840e+02 -1.5866407499012735e+02 0 0 0
6246 179 4 0.0000000000000000e+00 -1.1266013319297790e+02 -8.9346237010827281e+01 -1.6721264600972606e+02 0 0 0
6247 179 4 0.0000000000000000e+00 -1.0372681507046461e+02 -8.9464052565270947e+01 -1.6239253276933476e+02 0 0 0
6248 179 3 0.0000000000000000e+00 -9.5575411091764465e+01 -9.5370615421769983e+01 -1.5884263671998184e+02 0 0 0
2804 81 1 0.0000000000000000e+00 -8.5121204127235558e+01 -9.0337685347176162e+01 -1.6114384005093061e+02 0 0 0
2805 81 2 0.0000000000000000e+00 -7.7993285977003254e+01 -9.2924935614240951e+01 -1.5559538683431003e+02 0 0 0
6252 179 4 0.0000000000000000e+00 -6.2751372045176154e+01 -9.5805202974769259e+01 -1.5958427138861487e+02 0 0 0
1635 47 1 0.0000000000000000e+00 -4.6107920377320326e+01 -8.6048857275584325e+01 -1.5869551263326218e+02 0 0 0
4750 136 3 0.0000000000000000e+00 -5.2811286103824287e+01 -9.3299079747637890e+01 -1.6490836950148548e+02 0 0 0
1379 40 2 0.0000000000000000e+00 -1.1641296022839838e+02 -7.6875109922233804e+01 -1.5695236218930353e+02 0 0 0
2803 81 2 0.0000000000000000e+00 -8.9025872419061315e+01 -8.2439988748460152e+01 -1.6620246470127790e+02 0 0 0
2802 81 2 0.0000000000000000e+00 -8.4532782125424475e+01 -7.3682397431235160e+01 -1.6836010936058392e+02 0 0 0
629 18 2 0.0000000000000000e+00 -5.3398785983618879e+01 -7.0021433209413772e+01 -1.6541931269493284e+02 0 0 0
1636 47 2 0.0000000000000000e+00 -4.1635519546710590e+01 -8.1693830876982517e+01 -1.6643406185568412e+02 0 0 0
1378 40 2 0.0000000000000000e+00 -1.1037565790423906e+02 -6.8886389116832277e+01 -1.5727517012975969e+02 0 0 0
1375 40 2 0.0000000000000000e+00 -8.9402285648547107e+01 -5.9309908670600002e+01 -1.6861151277818465e+02 0 0 0
1376 40 1 0.0000000000000000e+00 -9.4549884342206298e+01 -6.0669444866628879e+01 -1.6022389376554707e+02 0 0 0
628 18 2 0.0000000000000000e+00 -5.0106571584465186e+01 -6.9209805187540198e+01 -1.5560339972728679e+02 0 0 0
5103 146 4 0.0000000000000000e+00 -3.9523369928053128e+01 -5.9659217049079814e+01 -1.6312123838850732e+02 0 0 0
6234 179 3 0.0000000000000000e+00 -1.4060078383769596e+02 -5.3111907441461838e+01 -1.5558859728571952e+02 0 0 0
6235 179 4 0.0000000000000000e+00 -1.3572529592611008e+02 -5.4210173421527834e+01 -1.6458668325783526e+02 0 0 0
2937 84 1 0.0000000000000000e+00 -1.3561172008372475e+02 -4.4412736332138635e+01 -1.6082420043090698e+02 0 0 0
6534 187 4 0.0000000000000000e+00 -1.0577606181161023e+02 -5.0193565549341272e+01 -1.5498758809827660e+02 0 0 0
6535 187 3 0.0000000000000000e+00 -9.7083710825831275e+01 -4.9438736602512456e+01 -1.5997465155109774e+02 0 0 0
6536 187 4 0.0000000000000000e+00 -8.9659214047578502e+01 -4.5622366006299529e+01 -1.6481758314928172e+02 0 0 0
1767 51 2 0.0000000000000000e+00 -5.1445703528518528e+01 -4.5181939401127025e+01 -1.5893917698463883e+02 0 0 0
1766 51 2 0.0000000000000000e+00 -4.9359301257332795e+01 -5.3217388098133362e+01 -1.6346492709159176e+02 0 0 0
6195 177 4 0.0000000000000000e+00 -1.7628826422111979e+02 -3.2709284163038227e+01 -1.6763212266969319e+02 0 0 0
2935 84 2 0.0000000000000000e+00 -1.4592080062782364e+02 -2.9917992059511199e+01 -1.5898067540627528e+02 0 0 0
2936 84 2 0.0000000000000000e+00 -1.4217936224286890e+02 -3.6956678678845620e+01 -1.6485642443077808e+02 0 0 0
2938 84 2 0.0000000000000000e+00 -1.2760305921380225e+02 -3.7851791260858967e+01 -1.6071048220485119e+02 0 0 0
2939 84 2 0.0000000000000000e+00 -1.2075818984830128e+02 -3.0621548730960139e+01 -1.6155189626676324e+02 0 0 0
6537 187 4 0.0000000000000000e+00 -8.3142110113702017e+01 -3.7906469205844594e+01 -1.6580900877751390e+02 0 0 0
1296 38 2 0.0000000000000000e+00 -6.5181990089230737e+01 -3.2726934474204498e+01 -1.6763102586130358e+02 0 0 0
5093 146 3 0.0000000000000000e+00 -4.9684481397847826e+01 -3.1192018582966096e+01 -1.6381263924560781e+02 0 0 0
5092 146 4 0.0000000000000000e+00 -4.2119429941524601e+01 -3.2942671741393582e+01 -1.5729516339352111e+02 0 0 0
6194 177 4 0.0000000000000000e+00 -1.7047061768852078e+02 -2.6563386799559634e+01 -1.6272077054919896e+02 0 0 0
2919 84 2 0.0000000000000000e+00 -1.5886295037546739e+02 -1.8672221348406449e+01 -1.5800949300901902e+02 0 0 0
2920 84 2 0.0000000000000000e+00 -1.6327769800165674e+02 -2.7278308074570745e+01 -1.5514814174088974e+02 0 0 0
6538 187 4 0.0000000000000000e+00 -7.8809231930087904e+01 -2.8751332492771756e+01 -1.6608190236057411e+02 0 0 0
6539 187 4 0.0000000000000000e+00 -8.6105915668092848e+01 -2.2257923346901801e+01 -1.6548131092956240e+02 0 0 0
3195 92 2 0.0000000000000000e+00 -7.4633925761774663e+01 -1.5761485593001574e+01 -1.6074220552945710e+02 0 0 0
5094 146 4 0.0000000000000000e+00 -5.3578070456293119e+01 -2.2548549976976631e+01 -1.6248885291116133e+02 0 0 0
620 18 1 0.0000000000000000e+00 -3.4312309777872244e+01 -2.2928225536084618e+01 -1.5608788127583256e+02 0 0 0
619 18 2 0.0000000000000000e+00 -3.3037347694824575e+01 -2.0734145578355680e+01 -1.6653183692712651e+02 0 0 0
2926 84 2 0.0000000000000000e+00 -1.9229689030553641e+02 -5.9172261330574116e+00 -1.6078255924532516e+02 0 0 0
2925 84 2 0.0000000000000000e+00 -1.8853105614041547e+02 -1.4024731073938833e+01 -1.5712262239759045e+02 0 0 0
2931 84 2 0.0000000000000000e+00 -1.6520562953396541e+02 -8.9571849362246692e+00 -1.5723478422229354e+02 0 0 0
2918 84 2 0.0000000000000000e+00 -1.5153931328294010e+02 -1.1947597089799931e+01 -1.5957829837213674e+02 0 0 0
5766 165 4 0.0000000000000000e+00 -3.8119616834653002e+01 -6.9999059476363961e+00 -1.6254015545746930e+02 0 0 0
1903 55 2 0.0000000000000000e+00 -3.3636676356216235e+01 -2.9115561598414108e+00 -1.5544203299095605e+02 0 0 0
2927 84 2 0.0000000000000000e+00 -1.8756516597276743e+02 3.0365355025298109e+00 -1.6159424077684199e+02 0 0 0
2928 84 2 0.0000000000000000e+00 -1.7933392934851028e+02 8.1275102505551917e+00 -1.6436378895703061e+02 0 0 0
2929 84 2 0.0000000000000000e+00 -1.7221096346165888e+02 9.3673385920041259e+00 -1.5751223618767321e+02 0 0 0
2930 84 1 0.0000000000000000e+00 -1.6800505645098860e+02 4.6507326155935774e-01 -1.5568912684676130e+02 0 0 0
2496 72 1 0.0000000000000000e+00 -1.5826839407201530e+02 8.6104538072797627e+00 -1.5567838635969824e+02 0 0 0
2495 72 2 0.0000000000000000e+00 -1.6370228579809046e+02 1.0425352228213345e+01 -1.6398898033851785e+02 0 0 0
5894 169 4 0.0000000000000000e+00 -1.5150296875017460e+02 1.8800518867193590e+00 -1.6075209526915563e+02 0 0 0
5910 169 4 0.0000000000000000e+00 -1.4422309775126459e+02 7.0123111853087847e+00 -1.6690483363462909e+02 0 0 0
5893 169 4 0.0000000000000000e+00 -1.4133496890753585e+02 1.2319195118785364e+00 -1.5882438664954421e+02 0 0 0
6046 173 4 0.0000000000000000e+00 -3.5604861710641188e+01 1.1330267229793598e+01 -1.6181115160465018e+02 0 0 0
5913 169 4 0.0000000000000000e+00 -1.6417430454579963e+02 2.4306287405469483e+01 -1.5516949818039862e+02 0 0 0
5911 169 4 0.0000000000000000e+00 -1.4866100114109668e+02 1.4856021208633317e+01 -1.6137626689871152e+02 0 0 0
5912 169 3 0.0000000000000000e+00 -1.5553376108775618e+02 1.9538890568456630e+01 -1.5636344110641312e+02 0 0 0
6047 173 4 0.0000000000000000e+00 -4.3353877510311563e+01 1.5463867163486185e+01 -1.5826884183673852e+02 0 0 0
4733 136 4 0.0000000000000000e+00 -4.9568387994758126e+01 -1.3316581521932611e+02 -1.5101754487059998e+02 0 0 0
4732 136 4 0.0000000000000000e+00 -5.5398867168179315e+01 -1.3245993358208966e+02 -1.4333656378770038e+02 0 0 0
2072 60 2 0.0000000000000000e+00 -8.2934722745838968e+01 -1.1202571159656817e+02 -1.5138558920191335e+02 0 0 0
2073 60 2 0.0000000000000000e+00 -8.6571978486682809e+01 -1.1317486479427173e+02 -1.4226356030452573e+02 0 0 0
5538 159 4 0.0000000000000000e+00 -6.1652549082326736e+01 -1.1872430200569910e+02 -1.4972605166949893e+02 0 0 0
5537 159 4 0.0000000000000000e+00 -5.2021712157231647e+01 -1.1892060536527163e+02 -1.5165099403674918e+02 0 0 0
5535 159 4 0.0000000000000000e+00 -3.2736171991154087e+01 -1.1626163295901917e+02 -1.5474502986776929e+02 0 0 0
4726 136 4 0.0000000000000000e+00 -4.2090952303997994e+01 -1.1826384102787505e+02 -1.4450600140616677e+02 0 0 0
6250 179 4 0.0000000000000000e+00 -7.8530108484019522e+01 -1.0296020285885814e+02 -1.5227101777521693e+02 0 0 0
2079 60 2 0.0000000000000000e+00 -4.1503036083205828e+01 -1.0115700434771408e+02 -1.4153390907307752e+02 0 0 0
2833 81 2 0.0000000000000000e+00 -1.6694362966193145e+02 -8.8513887241182459e+01 -1.4649728451841548e+02 0 0 0
2832 81 1 0.0000000000000000e+00 -1.5777621504955684e+02 -9.3545557345303834e+01 -1.4369238429538271e+02 0 0 0
2806 81 2 0.0000000000000000e+00 -7.3823721019338038e+01 -9.3536349440344864e+01 -1.4710557999941983e+02 0 0 0
6253 179 4 0.0000000000000000e+00 -6.1192265223354021e+01 -9.0202889998423743e+01 -1.5135063504121914e+02 0 0 0
6254 179 4 0.0000000000000000e+00 -6.3003255390742630e+01 -8.5803840784163640e+01 -1.4273721236373476e+02 0 0 0
2078 60 2 0.0000000000000000e+00 -4.6616480528303754e+01 -9.2514466277448477e+01 -1.4124418080139199e+02 0 0 0
6333 181 4 0.0000000000000000e+00 -1.5764687112055782e+02 -7.8013897009893469e+01 -1.4190166672624795e+02 0 0 0
1382 40 2 0.0000000000000000e+00 -1.4419257012872930e+02 -7.7154380758049939e+01 -1.4723725455387387e+02 0 0 0
1381 40 2 0.0000000000000000e+00 -1.3466980383928066e+02 -7.4682036550270041e+01 -1.5072033755933319e+02 0 0 0
1380 40 2 0.0000000000000000e+00 -1.2545229992839126e+02 -7.7708924719957366e+01 -1.5258075388059029e+02 0 0 0
1521 44 2 0.0000000000000000e+00 -8.6738286006804273e+01 -7.0930398193098981e+01 -1.4152691993902090e+02 0 0 0
1522 44 2 0.0000000000000000e+00 -8.4702658956805820e+01 -8.0784210867483893e+01 -1.4367052901477007e+02 0 0 0
1633 47 2 0.0000000000000000e+00 -6.0563035774303714e+01 -7.6863944258125770e+01 -1.4924366090998552e+02 0 0 0
1632 47 2 0.0000000000000000e+00 -6.2219260474489566e+01 -6.9749118677958464e+01 -1.4241373576551786e+02 0 0 0
1634 47 2 0.0000000000000000e+00 -5.4000886378881575e+01 -8.2724073130238409e+01 -1.5328101268494791e+02 0 0 0
5085 146 4 0.0000000000000000e+00 -3.3904319727053689e+01 -7.7414312736495091e+01 -1.4662118390594881e+02 0 0 0
6335 181 4 0.0000000000000000e+00 -1.6901138956483061e+02 -6.5615644525979206e+01 -1.4414516513710356e+02 0 0 0
6529 187 4 0.0000000000000000e+00 -1.4521877916983544e+02 -6.3757819881013098e+01 -1.4597742172949697e+02 0 0 0
6530 187 4 0.0000000000000000e+00 -1.3811305732057690e+02 -6.1810883309318143e+01 -1.5333900595248804e+02 0 0 0
6531 187 4 0.0000000000000000e+00 -1.2975426291420106e+02 -5.7188510553353943e+01 -1.5250609912202842e+02 0 0 0
1377 40 2 0.0000000000000000e+00 -1.0354037300552301e+02 -6.1758196295017932e+01 -1.5495398359077524e+02 0 0 0
627 18 1 0.0000000000000000e+00 -5.1098354581623177e+01 -6.7986626958249914e+01 -1.4560396834673890e+02 0 0 0
5102 146 4 0.0000000000000000e+00 -4.2489445579791429e+01 -5.6459360694657953e+01 -1.5436518795665984e+02 0 0 0
5086 146 3 0.0000000000000000e+00 -3.9747231577245408e+01 -6.9295224810835578e+01 -1.4819298374314437e+02 0 0 0
5087 146 4 0.0000000000000000e+00 -3.4181179344917275e+01 -6.2804504329590316e+01 -1.5235742201470080e+02 0 0 0
6233 179 4 0.0000000000000000e+00 -1.4494682606743291e+02 -4.8602160371571742e+01 -1.4821532057361242e+02 0 0 0
6532 187 4 0.0000000000000000e+00 -1.2130959487234922e+02 -5.1209109677729458e+01 -1.5122832179139817e+02 0 0 0
6533 187 4 0.0000000000000000e+00 -1.1259592142828691e+02 -4.8861808228989432e+01 -1.4739010942643466e+02 0 0 0
5101 146 4 0.0000000000000000e+00 -3.9942791498731452e+01 -4.9390100353739108e+01 -1.4758340078644736e+02 0 0 0
5090 146 4 0.0000000000000000e+00 -3.2968692742416884e+01 -4.7510958770987308e+01 -1.5405257377060772e+02 0 0 0
2922 84 2 0.0000000000000000e+00 -1.7863456987857589e+02 -3.2273017415749244e+01 -1.4648871765613939e+02 0 0 0
2921 84 2 0.0000000000000000e+00 -1.6925675872018959e+02 -3.3931738220036273e+01 -1.5017716076825906e+02 0 0 0
1540 44 2 0.0000000000000000e+00 -1.5636879399994615e+02 -3.4286989934171203e+01 -1.5284343036022156e+02 0 0 0
1539 44 2 0.0000000000000000e+00 -1.5220739807107668e+02 -3.9592846499837769e+01 -1.4544193681414490e+02 0 0 0
1768 51 1 0.0000000000000000e+00 -5.0795565969085573e+01 -3.6865175017896476e+01 -1.5279780231065496e+02 0 0 0
5100 146 3 0.0000000000000000e+00 -4.5575821630546109e+01 -4.1663188288528374e+01 -1.4437852170348168e+02 0 0 0
5091 146 4 0.0000000000000000e+00 -3.9064479467044357e+01 -4.0319941682028791e+01 -1.5123475959951966e+02 0 0 0
621 18 2 0.0000000000000000e+00 -3.4150411359891734e+01 -3.1448720514094362e+01 -1.5053931348836844e+02 0 0 0
622 18 2 0.0000000000000000e+00 -3.3693893385841953e+01 -3.5324692028446378e+01 -1.4178576104271835e+02 0 0 0
2923 84 1 0.0000000000000000e+00 -1.8643719472566505e+02 -2.6317334752390181e+01 -1.4492627906625995e+02 0 0 0
2924 84 2 0.0000000000000000e+00 -1.9183324952834198e+02 -2.0583564923435056e+01 -1.5063157104801431e+02 0 0 0
6193 177 4 0.0000000000000000e+00 -1.7536672304365842e+02 -2.4868088086807894e+01 -1.5345905739807759e+02 0 0 0
6192 177 3 0.0000000000000000e+00 -1.8018973750431994e+02 -1.7422565247832491e+01 -1.4789369015218526e+02 0 0 0
2934 84 2 0.0000000000000000e+00 -1.4561598390673572e+02 -2.6790110431735069e+01 -1.4952073576452784e+02 0 0 0
2933 84 2 0.0000000000000000e+00 -1.5148601584938456e+02 -1.8389876804596053e+01 -1.5000989960980280e+02 0 0 0
2940 84 2 0.0000000000000000e+00 -1.2618053938830177e+02 -2.8312734877307680e+01 -1.5290881314354985e+02 0 0 0
1769 51 2 0.0000000000000000e+00 -4.7643297195566916e+01 -2.8522147985098272e+01 -1.4765812378903945e+02 0 0 0
5095 146 4 0.0000000000000000e+00 -5.3776213265960720e+01 -2.0023167255943243e+01 -1.5228122809996492e+02 0 0 0
5096 146 4 0.0000000000000000e+00 -5.5411117698508917e+01 -1.9780970477394661e+01 -1.4257228135650271e+02 0 0 0
1770 51 2 0.0000000000000000e+00 -4.5161712472690446e+01 -2.0989264140498804e+01 -1.4160193333482911e+02 0 0 0
6191 177 4 0.0000000000000000e+00 -1.8615493245825519e+02 -9.8603166092984456e+00 -1.4366762315857162e+02 0 0 0
6190 177 4 0.0000000000000000e+00 -1.9560907101381909e+02 -7.5606104706691521e+00 -1.4283602991782675e+02 0 0 0
2932 84 2 0.0000000000000000e+00 -1.6027480523943120e+02 -1.4109884218371851e+01 -1.4999517829843623e+02 0 0 0
3194 92 2 0.0000000000000000e+00 -8.0918580717655871e+01 -1.2317996726341613e+01 -1.5384510462901355e+02 0 0 0
3193 92 2 0.0000000000000000e+00 -8.0052087052989663e+01 -9.5005096382501186e+00 -1.4421884257849032e+02 0 0 0
1905 55 2 0.0000000000000000e+00 -4.6950980776282115e+01 -6.1291333636894949e+00 -1.4319227499515907e+02 0 0 0
1904 55 2 0.0000000000000000e+00 -3.7597058512749975e+01 -5.7379291634126401e+00 -1.4656049871393296e+02 0 0 0
5892 169 4 0.0000000000000000e+00 -1.4442209231110050e+02 8.1810179022824769e+00 -1.5272682479493162e+02 0 0 0
5891 169 3 0.0000000000000000e+00 -1.4432927860275763e+02 9.0952731061441199e+00 -1.4294549946446548e+02 0 0 0
2501 72 2 0.0000000000000000e+00 -1.6078034605088578e+02 2.3698398158307391e+01 -1.4601274608989922e+02 0 0 0
2500 72 2 0.0000000000000000e+00 -1.6974161513844348e+02 1.8547076382563670e+01 -1.4419287970159800e+02 0 0 0
2497 72 2 0.0000000000000000e+00 -1.6164460951282322e+02 1.3672716568589506e+01 -1.4770899921926548e+02 0 0 0
2503 72 1 0.0000000000000000e+00 -1.4562152556373607e+02 2.0200151643232228e+01 -1.4168157670804928e+02 0 0 0
2502 72 2 0.0000000000000000e+00 -1.5124124508795771e+02 2.4163106862465593e+01 -1.4826065143999921e+02 0 0 0
6048 173 4 0.0000000000000000e+00 -4.8257406089381597e+01 1.4587743911161734e+01 -1.4962455056687529e+02 0 0 0
4731 136 4 0.0000000000000000e+00 -6.1347536660154567e+01 -1.2682265235411616e+02 -1.3684365986373967e+02 0 0 0
2094 60 2 0.0000000000000000e+00 -1.2626391982063066e+02 -1.1790232636789263e+02 -1.2783074487302672e+02 0 0 0
2074 60 2 0.0000000000000000e+00 -7.7317635350984958e+01 -1.1200860535512528e+02 -1.3805459553866976e+02 0 0 0
5539 159 4 0.0000000000000000e+00 -6.6264278785700640e+01 -1.1765182728329074e+02 -1.4075376946398057e+02 0 0 0