LAMMPS data file via write_data, version 5 Jun 2019, timestep = 380000000

7000 atoms
4 atom types
7264 bonds
3 bond types
6600 angles
2 angle types

-5.0000000000000000e+02 5.0000000000000000e+02 xlo xhi
-5.0000000000000000e+02 5.0000000000000000e+02 ylo yhi
-5.0000000000000000e+02 5.0000000000000000e+02 zlo zhi

Masses

1 1000
2 1000
3 1000
4 1000

Pair Coeffs # lj/cut

1 0.178 10
2 0.178 10
3 0.178 10
4 0.178 10

Angle Coeffs # cosine

1 2
2 2

Atoms # full

4744 136 4 0.0000000000000000e+00 -4.2897921450360549e+01 -8.8634124043703181e+01 -2.1033301405279323e+02 0 0 0
2833 81 2 0.0000000000000000e+00 -6.6663752490724548e+01 -1.3616123995351447e+02 -1.9799688674973669e+02 0 0 0
6333 181 4 0.0000000000000000e+00 -5.0483463897449340e+01 -1.4711343329132137e+02 -1.9809027012524567e+02 0 0 0
6334 181 4 0.0000000000000000e+00 -4.7472986665778620e+01 -1.4065948552634646e+02 -2.0520269276917844e+02 0 0 0
3011 87 2 0.0000000000000000e+00 -4.9944988914728135e+01 -1.0806851365850375e+02 -1.9969586308342173e+02 0 0 0
4742 136 4 0.0000000000000000e+00 -4.1753696040742405e+01 -1.0840548365138729e+02 -2.0386075370457826e+02 0 0 0
4743 136 3 0.0000000000000000e+00 -4.1967307899795046e+01 -9.9109008101344386e+01 -2.0845769400084140e+02 0 0 0
4745 136 4 0.0000000000000000e+00 -4.5016752946496389e+01 -8.6436900269120699e+01 -2.0036870213332031e+02 0 0 0
6543 187 4 0.0000000000000000e+00 -8.9566363019314210e+01 -3.0591020506669768e+01 -2.0279389825344160e+02 0 0 0
6542 187 3 0.0000000000000000e+00 -8.2138408943897105e+01 -3.5621738759253880e+01 -1.9839776573080411e+02 0 0 0
6544 187 4 0.0000000000000000e+00 -9.5654980871904513e+01 -2.4187811129428543e+01 -1.9803827783158576e+02 0 0 0
6207 178 4 0.0000000000000000e+00 -6.0595061698649097e+01 2.5278704578936154e+01 -2.0000863157932153e+02 0 0 0
6208 178 4 0.0000000000000000e+00 -5.1444056859047919e+01 2.5400608877214523e+01 -2.0389870803403875e+02 0 0 0
6331 181 4 0.0000000000000000e+00 -6.1263167749588717e+01 -1.5256578884032692e+02 -1.8388022547607281e+02 0 0 0
2832 81 1 0.0000000000000000e+00 -6.3555069946771063e+01 -1.4058943078658552e+02 -1.8941552943710883e+02 0 0 0
6332 181 3 0.0000000000000000e+00 -5.4661285263175259e+01 -1.4678142982080695e+02 -1.8834104849909005e+02 0 0 0
2834 81 2 0.0000000000000000e+00 -6.7898978129987526e+01 -1.2664033640393379e+02 -1.9487823690505328e+02 0 0 0
4738 136 4 0.0000000000000000e+00 -4.8590085080731299e+01 -1.2599653669838770e+02 -1.8180201399334339e+02 0 0 0
2835 81 2 0.0000000000000000e+00 -7.0895951889579777e+01 -1.2092975497019204e+02 -1.8749000297624841e+02 0 0 0
3013 87 2 0.0000000000000000e+00 -4.5112986550811250e+01 -1.1491542238041272e+02 -1.8435203175500314e+02 0 0 0
3012 87 2 0.0000000000000000e+00 -5.2389577540424753e+01 -1.1409083640125571e+02 -1.9141630956611561e+02 0 0 0
2801 81 2 0.0000000000000000e+00 -1.5482521184170375e+02 -9.4203209500373546e+01 -1.8730159797922786e+02 0 0 0
4746 136 4 0.0000000000000000e+00 -4.3686228998527575e+01 -8.6005828813609710e+01 -1.9005797287578662e+02 0 0 0
4747 136 4 0.0000000000000000e+00 -4.8190472404651679e+01 -8.9897431252091891e+01 -1.8229910189927782e+02 0 0 0
6541 187 4 0.0000000000000000e+00 -8.6870497907791375e+01 -4.2995929125178044e+01 -1.9342242064505544e+02 0 0 0
6540 187 4 0.0000000000000000e+00 -9.0325452289494791e+01 -4.6706859914111355e+01 -1.8440105547463449e+02 0 0 0
3195 92 2 0.0000000000000000e+00 -8.6883472322245225e+01 -3.3922611334531183e+01 -1.8581873700742258e+02 0 0 0
3196 92 1 0.0000000000000000e+00 -7.7025576006593468e+01 -3.3770483360626891e+01 -1.8830934458316327e+02 0 0 0
3197 92 2 0.0000000000000000e+00 -6.8023610237886615e+01 -3.7108864132986753e+01 -1.8852693587091031e+02 0 0 0
3198 92 2 0.0000000000000000e+00 -5.8874953217056131e+01 -3.2032336939365031e+01 -1.8650429622910633e+02 0 0 0
6194 177 4 0.0000000000000000e+00 -1.6241558636598538e+02 -1.6125096782650740e+01 -1.8449574796544155e+02 0 0 0
6195 177 4 0.0000000000000000e+00 -1.5406998818438359e+02 -1.9195401986788571e+01 -1.8810066443961298e+02 0 0 0
6545 187 4 0.0000000000000000e+00 -9.2200623078092889e+01 -1.6647170892628587e+01 -1.9217322535651559e+02 0 0 0
3199 92 2 0.0000000000000000e+00 -5.0116042179001724e+01 -2.7371950456931479e+01 -1.8741732293858297e+02 0 0 0
1785 51 2 0.0000000000000000e+00 -6.8951875030899686e+01 6.1012930527005667e+00 -1.8381769794295161e+02 0 0 0
6329 181 4 0.0000000000000000e+00 -5.2750934669398241e+01 -1.6482847856767614e+02 -1.7095828916428098e+02 0 0 0
4726 136 4 0.0000000000000000e+00 -9.0604207104234220e+01 -1.5016392767364465e+02 -1.7111590586113206e+02 0 0 0
2829 81 2 0.0000000000000000e+00 -6.8445792064367410e+01 -1.5246086353327823e+02 -1.7227470160973442e+02 0 0 0
6330 181 4 0.0000000000000000e+00 -5.8207202934828764e+01 -1.5936813714385448e+02 -1.7705101880053650e+02 0 0 0
2830 81 2 0.0000000000000000e+00 -6.9491412876011765e+01 -1.4458348860681781e+02 -1.7761604517491151e+02 0 0 0
2831 81 2 0.0000000000000000e+00 -6.7379386871133960e+01 -1.3563491614740690e+02 -1.8122277138969400e+02 0 0 0
2806 81 2 0.0000000000000000e+00 -1.3072705255971340e+02 -1.1048931167180318e+02 -1.7106127852023994e+02 0 0 0
2807 81 2 0.0000000000000000e+00 -1.2311007825047055e+02 -1.0945478443807431e+02 -1.7649408958680283e+02 0 0 0
4737 136 4 0.0000000000000000e+00 -5.6845855312697147e+01 -1.2086366020319194e+02 -1.8055141714849916e+02 0 0 0
4736 136 3 0.0000000000000000e+00 -5.4137304530046663e+01 -1.1692881063944218e+02 -1.7133199174799296e+02 0 0 0
3014 87 1 0.0000000000000000e+00 -4.4156725527518390e+01 -1.1941917311545554e+02 -1.7511036122528367e+02 0 0 0
2805 81 2 0.0000000000000000e+00 -1.3907448098629735e+02 -1.0510286749504475e+02 -1.7252616799928512e+02 0 0 0
6249 179 4 0.0000000000000000e+00 -1.3114618121915169e+02 -9.9526498638904158e+01 -1.6802967720997606e+02 0 0 0
6250 179 4 0.0000000000000000e+00 -1.2416618358814374e+02 -9.7157778192379155e+01 -1.7390945476731972e+02 0 0 0
2808 81 2 0.0000000000000000e+00 -1.1775383817704333e+02 -1.0891409204880880e+02 -1.6769586106556096e+02 0 0 0
6260 179 4 0.0000000000000000e+00 -8.7055376854293854e+01 -9.6315782439669206e+01 -1.6779166452176329e+02 0 0 0
6258 179 4 0.0000000000000000e+00 -7.1093051163689651e+01 -9.7568317361099318e+01 -1.7372065995433786e+02 0 0 0
4748 136 4 0.0000000000000000e+00 -4.2904740949673780e+01 -9.8724454667144116e+01 -1.8029674131872187e+02 0 0 0
2802 81 2 0.0000000000000000e+00 -1.5590248127473481e+02 -9.2571072051619126e+01 -1.7758308425965166e+02 0 0 0
2803 81 2 0.0000000000000000e+00 -1.5136212586380972e+02 -9.2681820056421969e+01 -1.6863819393519103e+02 0 0 0
6251 179 4 0.0000000000000000e+00 -1.1783620726551510e+02 -9.2558975299348262e+01 -1.7961013743959077e+02 0 0 0
6252 179 4 0.0000000000000000e+00 -1.1037967771222279e+02 -8.5413366807554397e+01 -1.8010942334611772e+02 0 0 0
6259 179 4 0.0000000000000000e+00 -7.9283662095831701e+01 -9.2403271556808591e+01 -1.7278286669074228e+02 0 0 0
6256 179 4 0.0000000000000000e+00 -7.3214366224122642e+01 -8.2255016035456549e+01 -1.7261663515265826e+02 0 0 0
6257 179 4 0.0000000000000000e+00 -6.9762582876042558e+01 -8.9573588303543062e+01 -1.7869135228755127e+02 0 0 0
1375 40 2 0.0000000000000000e+00 -1.3410332918571410e+02 -7.0880830912996643e+01 -1.7402224580248796e+02 0 0 0
1376 40 1 0.0000000000000000e+00 -1.2482261922694381e+02 -7.1202683693952650e+01 -1.7118215043481260e+02 0 0 0
6253 179 4 0.0000000000000000e+00 -1.0129803158395919e+02 -8.1095444544558049e+01 -1.7809375558033514e+02 0 0 0
6255 179 3 0.0000000000000000e+00 -8.3235044164261069e+01 -8.1551428644717674e+01 -1.7512283367988312e+02 0 0 0
6254 179 4 0.0000000000000000e+00 -9.2508874388926827e+01 -8.0252002734632612e+01 -1.7438857110255822e+02 0 0 0
6535 187 3 0.0000000000000000e+00 -1.2392880061861288e+02 -6.0483738003710478e+01 -1.7131618808946598e+02 0 0 0
6537 187 4 0.0000000000000000e+00 -1.0818622146055075e+02 -5.9433128325032868e+01 -1.7355090575393493e+02 0 0 0
2066 60 2 0.0000000000000000e+00 -9.3705966543949344e+01 -5.9126361635244457e+01 -1.6817753378929652e+02 0 0 0
2067 60 2 0.0000000000000000e+00 -8.9853920253106324e+01 -6.8586328925628877e+01 -1.6784983240842547e+02 0 0 0
3186 92 2 0.0000000000000000e+00 -1.2473749603713408e+02 -4.7176213664050742e+01 -1.7463424401359154e+02 0 0 0
6536 187 4 0.0000000000000000e+00 -1.1570959317230862e+02 -5.4409800217499303e+01 -1.6973651191020252e+02 0 0 0
6538 187 4 0.0000000000000000e+00 -1.0208488637528492e+02 -5.4244789240932342e+01 -1.7838373056566019e+02 0 0 0
3192 92 2 0.0000000000000000e+00 -1.0642235423991995e+02 -4.3494986181957451e+01 -1.6785308856367277e+02 0 0 0
6539 187 4 0.0000000000000000e+00 -9.2799170055699079e+01 -5.1164686068710850e+01 -1.7600011741481347e+02 0 0 0
3193 92 2 0.0000000000000000e+00 -9.8571598005829259e+01 -4.1243486568948477e+01 -1.7277656454082464e+02 0 0 0
3194 92 2 0.0000000000000000e+00 -9.4334605307983693e+01 -3.6691730265198153e+01 -1.8030128494321286e+02 0 0 0
3200 92 2 0.0000000000000000e+00 -4.4543142997300997e+01 -2.3854640146120889e+01 -1.8003345182806066e+02 0 0 0
2920 84 2 0.0000000000000000e+00 -2.0110835283061371e+02 -5.5852175153272672e+00 -1.7083711986783786e+02 0 0 0
2921 84 2 0.0000000000000000e+00 -1.9115402652541695e+02 -5.3753555266442499e+00 -1.7074647008837337e+02 0 0 0
6193 177 4 0.0000000000000000e+00 -1.6398707448307272e+02 -1.4524904411067073e+01 -1.7516540610905909e+02 0 0 0
1784 51 2 0.0000000000000000e+00 -7.5790453812711704e+01 1.2597290044572059e+01 -1.7959618351947165e+02 0 0 0
1783 51 2 0.0000000000000000e+00 -7.7983508092671130e+01 1.9617201885198622e+01 -1.7319996772689282e+02 0 0 0
6328 181 4 0.0000000000000000e+00 -4.4298587052514776e+01 -1.6832342185867918e+02 -1.6656157773160851e+02 0 0 0
2828 81 2 0.0000000000000000e+00 -6.6781784682614173e+01 -1.5182429835653352e+02 -1.6237124381299026e+02 0 0 0
4727 136 4 0.0000000000000000e+00 -8.6768303350186272e+01 -1.4584628079607359e+02 -1.6295916137161663e+02 0 0 0
4728 136 4 0.0000000000000000e+00 -8.2744876169016948e+01 -1.4184078497099327e+02 -1.5406415254759696e+02 0 0 0
2827 81 2 0.0000000000000000e+00 -6.7808709942963176e+01 -1.4600416205984760e+02 -1.5529413019735341e+02 0 0 0
2809 81 2 0.0000000000000000e+00 -1.0998198155338621e+02 -1.1200393207882111e+02 -1.6216111140655477e+02 0 0 0
2810 81 2 0.0000000000000000e+00 -1.0314697021634726e+02 -1.1282037826597661e+02 -1.5436735805933245e+02 0 0 0
3015 87 2 0.0000000000000000e+00 -4.2034940768290930e+01 -1.1583718052199114e+02 -1.6611020072758862e+02 0 0 0
4735 136 4 0.0000000000000000e+00 -5.2382418876285847e+01 -1.0922227732903032e+02 -1.6534634697298617e+02 0 0 0
2804 81 1 0.0000000000000000e+00 -1.4474548727382322e+02 -9.9749084842323740e+01 -1.6660167997968159e+02 0 0 0
6247 179 4 0.0000000000000000e+00 -1.4232249727837814e+02 -1.0655700803114391e+02 -1.5448242946941011e+02 0 0 0
6248 179 3 0.0000000000000000e+00 -1.3578283562305859e+02 -1.0541914413157497e+02 -1.6212797922533113e+02 0 0 0
6262 179 3 0.0000000000000000e+00 -9.8574327014217886e+01 -9.8349101177415491e+01 -1.5365676906828844e+02 0 0 0
2811 81 1 0.0000000000000000e+00 -9.5162967686028381e+01 -1.0812535300210493e+02 -1.5743252905980066e+02 0 0 0
6261 179 4 0.0000000000000000e+00 -8.9870583959858678e+01 -9.6636474006137689e+01 -1.5847848255902832e+02 0 0 0
4734 136 4 0.0000000000000000e+00 -5.4662639575898531e+01 -1.0335788387420715e+02 -1.5830052036015414e+02 0 0 0
2069 60 1 0.0000000000000000e+00 -8.2497425114799015e+01 -8.6649475460051377e+01 -1.6516327741601793e+02 0 0 0
2070 60 2 0.0000000000000000e+00 -7.7596289888736891e+01 -8.9162202462472820e+01 -1.5682502427465278e+02 0 0 0
1373 40 2 0.0000000000000000e+00 -1.3794506371002956e+02 -7.2235265971056975e+01 -1.5484286890509742e+02 0 0 0
1374 40 2 0.0000000000000000e+00 -1.3504776977118877e+02 -7.4689454435012692e+01 -1.6457671705174457e+02 0 0 0
6265 179 4 0.0000000000000000e+00 -1.1965270060866578e+02 -8.1066487953794933e+01 -1.5496189833874985e+02 0 0 0
1377 40 2 0.0000000000000000e+00 -1.1848731052858160e+02 -7.5304500139214667e+01 -1.6472758825492485e+02 0 0 0
1378 40 2 0.0000000000000000e+00 -1.2197391179579877e+02 -7.1510154373503653e+01 -1.5616306392833377e+02 0 0 0
2068 60 2 0.0000000000000000e+00 -8.8678098710437283e+01 -7.9107519098366026e+01 -1.6625747373920888e+02 0 0 0
6534 187 4 0.0000000000000000e+00 -1.3051306023644912e+02 -5.8882335743436684e+01 -1.6347971740369934e+02 0 0 0
6533 187 4 0.0000000000000000e+00 -1.2679401783669331e+02 -5.8484220906081617e+01 -1.5423903239645082e+02 0 0 0
3190 92 2 0.0000000000000000e+00 -1.1421452227920571e+02 -5.6894369554652314e+01 -1.5635780046139490e+02 0 0 0
3712 107 4 0.0000000000000000e+00 -1.0273687267965528e+02 -5.6231798505287038e+01 -1.5385429696303936e+02 0 0 0
3191 92 2 0.0000000000000000e+00 -1.1208886101188521e+02 -4.8274398049096298e+01 -1.6110515652221966e+02 0 0 0
3187 92 2 0.0000000000000000e+00 -1.2258844624019665e+02 -4.0735929322203383e+01 -1.6685776648795166e+02 0 0 0
3188 92 2 0.0000000000000000e+00 -1.2375940196303605e+02 -4.0987225437334807e+01 -1.5637073224209681e+02 0 0 0
6183 177 4 0.0000000000000000e+00 -1.1323005727286075e+02 -2.9879308144893191e+01 -1.5791346988205774e+02 0 0 0
2925 84 2 0.0000000000000000e+00 -1.6287463299794379e+02 -2.0548509556169101e+01 -1.5391454511006751e+02 0 0 0
2486 72 2 0.0000000000000000e+00 -1.2462513847058763e+02 -1.4725246887130666e+01 -1.6043703477780960e+02 0 0 0
6182 177 4 0.0000000000000000e+00 -1.1097129407499338e+02 -2.0586450776023572e+01 -1.5755571901623091e+02 0 0 0
2922 84 2 0.0000000000000000e+00 -1.8449332284926703e+02 -7.0256174939671014e+00 -1.6444303305018016e+02 0 0 0
2924 84 2 0.0000000000000000e+00 -1.6812864291840319e+02 -1.2552583223299388e+01 -1.5555066008488214e+02 0 0 0
2923 84 1 0.0000000000000000e+00 -1.7453424204726025e+02 -8.9323300275740678e+00 -1.6257251277212978e+02 0 0 0
6192 177 3 0.0000000000000000e+00 -1.6357830408069904e+02 -1.0568605016350773e+01 -1.6502210798574640e+02 0 0 0
6191 177 4 0.0000000000000000e+00 -1.5663559950509142e+02 -8.8573946765217766e+00 -1.5789149808519727e+02 0 0 0
2487 72 2 0.0000000000000000e+00 -1.2089990661589938e+02 -5.7177530852014202e+00 -1.6230395311582348e+02 0 0 0
6181 177 4 0.0000000000000000e+00 -1.1079636126816142e+02 -1.0892560655109374e+01 -1.5532627240971024e+02 0 0 0
6180 177 4 0.0000000000000000e+00 -1.0222212674922436e+02 -6.1961931766278155e+00 -1.5728252293794574e+02 0 0 0
2919 84 2 0.0000000000000000e+00 -2.0862484240508158e+02 -2.8978818958148800e-01 -1.6635901060025941e+02 0 0 0
5907 169 4 0.0000000000000000e+00 -2.1060450001026803e+02 6.9996888174901022e+00 -1.5772592378162707e+02 0 0 0
2918 84 2 0.0000000000000000e+00 -2.0228580119169942e+02 -9.0460652220876278e-02 -1.5894195513572797e+02 0 0 0
2488 72 2 0.0000000000000000e+00 -1.1551305763612847e+02 2.4361901776780570e+00 -1.6420085886346544e+02 0 0 0
2489 72 1 0.0000000000000000e+00 -1.1089210087030897e+02 1.1709575685930599e+01 -1.6453295505175066e+02 0 0 0
6178 177 3 0.0000000000000000e+00 -1.0324200854031334e+02 1.1098301495374240e+01 -1.5616587956073951e+02 0 0 0
6179 177 4 0.0000000000000000e+00 -9.8034037021756561e+01 2.2449148626432205e+00 -1.5556968594075497e+02 0 0 0
6049 173 4 0.0000000000000000e+00 -6.3808301045994050e+01 2.1730375812058425e-01 -1.5365116865794889e+02 0 0 0
5908 169 4 0.0000000000000000e+00 -2.1740294359927418e+02 1.4072815007947394e+01 -1.5507727863734152e+02 0 0 0
5915 169 4 0.0000000000000000e+00 -1.7072804339899750e+02 2.4685907953396118e+01 -1.6432306948966783e+02 0 0 0
2500 72 2 0.0000000000000000e+00 -1.4876091347963407e+02 1.9656764521780861e+01 -1.5664747603644565e+02 0 0 0
2490 72 2 0.0000000000000000e+00 -1.0792072963377811e+02 2.0858900005632858e+01 -1.6342748210846028e+02 0 0 0
6038 173 3 0.0000000000000000e+00 -8.3117765676699918e+01 1.5757637268937147e+01 -1.5774608774861682e+02 0 0 0
6039 173 4 0.0000000000000000e+00 -8.6262001066710667e+01 2.3914804919964986e+01 -1.6282960646808215e+02 0 0 0
1782 51 1 0.0000000000000000e+00 -7.5417249722013779e+01 2.1005570800182390e+01 -1.6435197908891678e+02 0 0 0
1781 51 2 0.0000000000000000e+00 -6.8920383843588240e+01 2.0132061539319377e+01 -1.5715249338658663e+02 0 0 0
6047 173 4 0.0000000000000000e+00 -5.8943609670657892e+01 1.9384340632879169e+01 -1.5463646660438334e+02 0 0 0
6045 173 3 0.0000000000000000e+00 -4.4037703049195251e+01 2.2425271152437507e+01 -1.6609443941281668e+02 0 0 0
6046 173 4 0.0000000000000000e+00 -5.0398390488504106e+01 2.4178450740873327e+01 -1.5799679944001804e+02 0 0 0
2826 81 2 0.0000000000000000e+00 -7.1021004598496944e+01 -1.4140908892785509e+02 -1.4679302441590229e+02 0 0 0
2825 81 1 0.0000000000000000e+00 -7.5964563572592468e+01 -1.3552242186447157e+02 -1.3991067198826053e+02 0 0 0
4729 136 3 0.0000000000000000e+00 -7.8825775566519241e+01 -1.3296097955434550e+02 -1.5046163220059327e+02 0 0 0
4730 136 4 0.0000000000000000e+00 -7.2410002477848394e+01 -1.2585271960795932e+02 -1.4723000960019075e+02 0 0 0
5538 159 4 0.0000000000000000e+00 -4.6332876863938885e+01 -1.2804191873621471e+02 -1.4122056426500902e+02 0 0 0
4731 136 4 0.0000000000000000e+00 -6.8113756040945674e+01 -1.1809068990680329e+02 -1.4313934376448546e+02 0 0 0
6246 179 4 0.0000000000000000e+00 -1.5134951401443075e+02 -1.0304137648921191e+02 -1.5272186001706677e+02 0 0 0
6245 179 4 0.0000000000000000e+00 -1.5697724029804246e+02 -1.0012196430512958e+02 -1.4545819780757930e+02 0 0 0
2812 81 2 0.0000000000000000e+00 -8.8557613744843223e+01 -1.0379518456443803e+02 -1.5136517353230724e+02 0 0 0
2813 81 2 0.0000000000000000e+00 -8.7990855078563797e+01 -1.0547694336546972e+02 -1.4109958485414140e+02 0 0 0
4732 136 4 0.0000000000000000e+00 -6.7133751189117177e+01 -1.0821883251724678e+02 -1.4499343215553185e+02 0 0 0
4733 136 4 0.0000000000000000e+00 -6.1771358535587524e+01 -1.0274330550704089e+02 -1.5077080373859440e+02 0 0 0
6264 179 4 0.0000000000000000e+00 -1.1415490038774023e+02 -8.8525501785965929e+01 -1.5221942021777861e+02 0 0 0
6263 179 4 0.0000000000000000e+00 -1.0693116282306769e+02 -9.4511434476742522e+01 -1.4920346388549638e+02 0 0 0
2071 60 2 0.0000000000000000e+00 -7.2202375106237241e+01 -9.3996162780299940e+01 -1.4935675340465667e+02 0 0 0
2072 60 2 0.0000000000000000e+00 -6.3117886617494392e+01 -9.4094687761704080e+01 -1.4519442969995049e+02 0 0 0
1372 40 2 0.0000000000000000e+00 -1.3697430370809946e+02 -7.1464727538718662e+01 -1.4495019238179378e+02 0 0 0
1379 40 2 0.0000000000000000e+00 -1.2305263531813596e+02 -6.9296102839187185e+01 -1.4671264849230275e+02 0 0 0
6532 187 4 0.0000000000000000e+00 -1.1926785357527648e+02 -5.9734489899584823e+01 -1.4846193138827968e+02 0 0 0
6531 187 4 0.0000000000000000e+00 -1.1364296983637861e+02 -5.8798890258412506e+01 -1.3992644252426047e+02 0 0 0
3711 107 4 0.0000000000000000e+00 -9.3276545891732070e+01 -5.8422336131795582e+01 -1.5306566108413895e+02 0 0 0
3715 107 4 0.0000000000000000e+00 -1.2638666850802879e+02 -5.0232443891348154e+01 -1.4265305985197202e+02 0 0 0
3189 92 1 0.0000000000000000e+00 -1.2002171093932253e+02 -4.9743262081470533e+01 -1.5298623356191257e+02 0 0 0
3714 107 3 0.0000000000000000e+00 -1.1650652439035863e+02 -4.9632246669705530e+01 -1.4236087635890894e+02 0 0 0
3713 107 4 0.0000000000000000e+00 -1.0936342780892728e+02 -4.9319031659257163e+01 -1.4897693198233432e+02 0 0 0
1766 51 2 0.0000000000000000e+00 -4.3839938289456462e+01 -4.5871749663513732e+01 -1.4091393575337844e+02 0 0 0
6185 177 3 0.0000000000000000e+00 -1.2732169940913833e+02 -3.3809718260785438e+01 -1.4484240587602730e+02 0 0 0
6184 177 4 0.0000000000000000e+00 -1.1904920501882249e+02 -3.3127637784747371e+01 -1.5084247329817168e+02 0 0 0
1768 51 1 0.0000000000000000e+00 -5.6610194358274477e+01 -3.1807953245279514e+01 -1.4689952559255775e+02 0 0 0
1769 51 2 0.0000000000000000e+00 -6.5631880802107105e+01 -3.1981720306962472e+01 -1.5162963396914068e+02 0 0 0
1767 51 2 0.0000000000000000e+00 -5.0597998631482781e+01 -3.9237510325924198e+01 -1.4351715036504754e+02 0 0 0
2926 84 2 0.0000000000000000e+00 -1.5464030213351421e+02 -2.4025965527729529e+01 -1.4987941588290741e+02 0 0 0
6189 177 4 0.0000000000000000e+00 -1.5137288823464542e+02 -1.7065868748374108e+01 -1.4093779141273723e+02 0 0 0
2927 84 2 0.0000000000000000e+00 -1.4666206376132621e+02 -2.7916525028005790e+01 -1.4540460975334204e+02 0 0 0
2928 84 2 0.0000000000000000e+00 -1.3752531009173788e+02 -2.6070136557853878e+01 -1.4241309918253984e+02 0 0 0
1770 51 2 0.0000000000000000e+00 -7.3401046577535197e+01 -2.7996611834446281e+01 -1.4703715358619405e+02 0 0 0
6033 173 4 0.0000000000000000e+00 -6.5458262052023628e+01 -1.8447281969774057e+01 -1.4903036059272452e+02 0 0 0
6032 173 4 0.0000000000000000e+00 -5.6351943380799874e+01 -1.7724046557693789e+01 -1.4451717520913559e+02 0 0 0
6031 173 3 0.0000000000000000e+00 -5.0339552550653792e+01 -2.5011334715778585e+01 -1.4180735887795308e+02 0 0 0
2910 84 2 0.0000000000000000e+00 -1.7198980572807076e+02 -8.2034300324379856e+00 -1.4091810790867629e+02 0 0 0
6190 177 4 0.0000000000000000e+00 -1.5200684535064929e+02 -1.1268302424169006e+01 -1.4925948261039173e+02 0 0 0
6036 173 4 0.0000000000000000e+00 -8.4931693666627325e+01 -1.7188006442051433e+00 -1.4737888334512297e+02 0 0 0
6035 173 4 0.0000000000000000e+00 -8.0186505097812059e+01 -7.8258243694644065e+00 -1.5285873883718384e+02 0 0 0
6034 173 4 0.0000000000000000e+00 -7.2942289222324646e+01 -1.4385781797233646e+01 -1.5260266946571272e+02 0 0 0
6051 173 4 0.0000000000000000e+00 -7.6317416714488459e+01 -7.4407635921813178e+00 -1.4315814369434389e+02 0 0 0
6050 173 4 0.0000000000000000e+00 -6.7559918278233269e+01 -7.3012526099832789e+00 -1.4800097959129639e+02 0 0 0
5906 169 4 0.0000000000000000e+00 -2.1351387703479895e+02 -9.9773511926788061e-01 -1.5283148449091613e+02 0 0 0
5905 169 3 0.0000000000000000e+00 -2.1376910559136900e+02 -1.3568416567661137e-01 -1.4300118563691299e+02 0 0 0
2917 84 2 0.0000000000000000e+00 -2.0416404566886129e+02 5.5562835209155264e+00 -1.5083442537328048e+02 0 0 0
2916 84 1 0.0000000000000000e+00 -2.0300771655021634e+02 4.2817122599523207e+00 -1.4124482706702557e+02 0 0 0
2911 84 2 0.0000000000000000e+00 -1.6995172958511466e+02 4.8435022559915769e-01 -1.4457750716140612e+02 0 0 0
2912 84 2 0.0000000000000000e+00 -1.7402094324078132e+02 9.4019341522804449e+00 -1.4271321676632365e+02 0 0 0
5895 169 4 0.0000000000000000e+00 -1.4956462563574135e+02 8.0800836225990764e+00 -1.4001133303863475e+02 0 0 0
6037 173 4 0.0000000000000000e+00 -8.5034525483500687e+01 7.8375899713008366e+00 -1.5114295372329420e+02 0 0 0
2379 68 2 0.0000000000000000e+00 -9.3787586811691682e+01 7.6701042336582299e+00 -1.4452417394735664e+02 0 0 0
6048 173 4 0.0000000000000000e+00 -6.3166684988389449e+01 1.0338601215905216e+01 -1.5352787063323350e+02 0 0 0
5909 169 4 0.0000000000000000e+00 -2.1546680980512699e+02 1.9877907279302217e+01 -1.4747284167938665e+02 0 0 0
6177 177 4 0.0000000000000000e+00 -1.0940496443325050e+02 1.8054596363429678e+01 -1.5333458114343486e+02 0 0 0
6176 177 4 0.0000000000000000e+00 -1.1097113761349767e+02 2.5294680513385234e+01 -1.4659308276836325e+02 0 0 0
2380 68 2 0.0000000000000000e+00 -9.5141766371016232e+01 1.5892110961566779e+01 -1.4963738366629883e+02 0 0 0
5472 157 4 0.0000000000000000e+00 -9.1898990417007880e+01 2.5498213673223898e+01 -1.4851055665510009e+02 0 0 0
1780 51 2 0.0000000000000000e+00 -6.8156088181755536e+01 2.1121995880181096e+01 -1.4667978724846719e+02 0 0 0
2823 81 2 0.0000000000000000e+00 -8.9231403567423726e+01 -1.3875744221662822e+02 -1.2672282665785930e+02 0 0 0
2824 81 2 0.0000000000000000e+00 -8.0071927325606509e+01 -1.3841845050593281e+02 -1.3150987992701241e+02 0 0 0
5543 159 4 0.0000000000000000e+00 -7.0824954912064982e+01 -1.2654312448535099e+02 -1.3441507523407321e+02 0 0 0
5539 159 4 0.0000000000000000e+00 -5.2380135996340172e+01 -1.2969990067078209e+02 -1.3298314752198252e+02 0 0 0
6234 179 3 0.0000000000000000e+00 -1.2343346835877986e+02 -1.1127003185225773e+02 -1.2663247384409426e+02 0 0 0
5544 159 4 0.0000000000000000e+00 -7.1883258247501971e+01 -1.1679826488383242e+02 -1.3031109420225866e+02 0 0 0
5542 159 4 0.0000000000000000e+00 -6.2222428307097417e+01 -1.2188566237498763e+02 -1.3114682788129409e+02 0 0 0
6244 179 4 0.0000000000000000e+00 -1.5710445780641155e+02 -9.9098442570899579e+01 -1.3612440221702738e+02 0 0 0
1366 40 2 0.0000000000000000e+00 -1.4022511542484463e+02 -1.0898965744614335e+02 -1.3268025096995646e+02 0 0 0
1367 40 2 0.0000000000000000e+00 -1.4016958009877499e+02 -9.8805004296216623e+01 -1.3039986472875214e+02 0 0 0
6235 179 4 0.0000000000000000e+00 -1.2470633725098808e+02 -1.0141485726412888e+02 -1.2906980903794050e+02 0 0 0
2814 81 2 0.0000000000000000e+00 -9.2575560206687967e+01 -1.0504320902649896e+02 -1.3178736894250835e+02 0 0 0
5545 159 4 0.0000000000000000e+00 -7.1008652190221227e+01 -1.0729762329205970e+02 -1.2668296844658224e+02 0 0 0
2073 60 2 0.0000000000000000e+00 -6.2710361631112860e+01 -9.7526389315405794e+01 -1.3624673410369005e+02 0 0 0
2074 60 2 0.0000000000000000e+00 -5.9135903206416856e+01 -1.0072519427835856e+02 -1.2635462294887027e+02 0 0 0
4760 136 4 0.0000000000000000e+00 -4.8343162213155637e+01 -1.0783316470233400e+02 -1.2706628048732576e+02 0 0 0
6243 179 4 0.0000000000000000e+00 -1.5562466648795029e+02 -8.8448848669731063e+01 -1.3518861214299690e+02 0 0 0
6236 179 4 0.0000000000000000e+00 -1.2503423163180825e+02 -9.1763831103663620e+01 -1.3163570455276206e+02 0 0 0
6237 179 4 0.0000000000000000e+00 -1.2442994115871353e+02 -8.2677663078413204e+01 -1.2802950343667993e+02 0 0 0
6242 179 4 0.0000000000000000e+00 -1.4854059913972537e+02 -8.1669114611578834e+01 -1.3330646572438607e+02 0 0 0
1370 40 2 0.0000000000000000e+00 -1.3252890057106697e+02 -7.5045042956388471e+01 -1.3022207863705449e+02 0 0 0
1380 40 2 0.0000000000000000e+00 -1.1880312181055872e+02 -7.2809858540873279e+01 -1.3851310477846141e+02 0 0 0
1381 40 2 0.0000000000000000e+00 -1.0922183388051059e+02 -7.3821385100405806e+01 -1.3417711182968483e+02 0 0 0
1371 40 2 0.0000000000000000e+00 -1.3691912045478986e+02 -6.7842382951421087e+01 -1.3559624002973908e+02 0 0 0
1382 40 2 0.0000000000000000e+00 -1.0655659903485946e+02 -6.6470762864794850e+01 -1.2904112203253030e+02 0 0 0
6529 187 4 0.0000000000000000e+00 -9.8863944694010499e+01 -5.5675801730149345e+01 -1.2825851619032676e+02 0 0 0
6530 187 4 0.0000000000000000e+00 -1.0562317123031836e+02 -5.7267775588596955e+01 -1.3459310209269896e+02 0 0 0
3716 107 4 0.0000000000000000e+00 -1.3573853612318902e+02 -5.0587822065810684e+01 -1.3952516002287652e+02 0 0 0
3718 107 4 0.0000000000000000e+00 -1.4834301343654150e+02 -4.1818263234580677e+01 -1.2676941432814046e+02 0 0 0
3717 107 4 0.0000000000000000e+00 -1.4282265589663697e+02 -4.5196726859524517e+01 -1.3446357701260638e+02 0 0 0
3719 107 4 0.0000000000000000e+00 -1.5665948962480732e+02 -3.5860009306896302e+01 -1.2602881722497266e+02 0 0 0
6187 177 4 0.0000000000000000e+00 -1.4414311395668312e+02 -3.2967533412259471e+01 -1.3768451517724773e+02 0 0 0
6186 177 4 0.0000000000000000e+00 -1.3478777329673142e+02 -3.4754236978060618e+01 -1.3853493420663631e+02 0 0 0
2930 84 1 0.0000000000000000e+00 -1.1965825577441872e+02 -3.0061966389791674e+01 -1.3717166278980446e+02 0 0 0
2931 84 2 0.0000000000000000e+00 -1.0974780567512047e+02 -3.1042931462177055e+01 -1.3479231182678475e+02 0 0 0
2932 84 2 0.0000000000000000e+00 -1.0212101866466199e+02 -3.0003786298095264e+01 -1.2868816193561116e+02 0 0 0
6030 173 4 0.0000000000000000e+00 -4.6500481499796074e+01 -3.2460149073221771e+01 -1.3660642395080319e+02 0 0 0
5901 169 4 0.0000000000000000e+00 -1.9166514331064704e+02 -1.7181058083850505e+01 -1.2701650335739176e+02 0 0 0
5900 169 4 0.0000000000000000e+00 -1.8126956140753231e+02 -1.8655546438359384e+01 -1.2791152538790008e+02 0 0 0
5899 169 4 0.0000000000000000e+00 -1.7173159106387897e+02 -1.7640312126657467e+01 -1.2842780695341597e+02 0 0 0
6188 177 4 0.0000000000000000e+00 -1.5004533894827426e+02 -2.5284346892751689e+01 -1.3595271957607505e+02 0 0 0
3745 107 4 0.0000000000000000e+00 -1.4683732662251631e+02 -1.5069271471647173e+01 -1.2743816423045546e+02 0 0 0
2929 84 2 0.0000000000000000e+00 -1.2791554716366637e+02 -2.4762844731860483e+01 -1.3864721375336387e+02 0 0 0
1771 51 2 0.0000000000000000e+00 -7.8001558455412223e+01 -2.4740559759299508e+01 -1.3876409078916700e+02 0 0 0
1772 51 2 0.0000000000000000e+00 -7.4160214679949462e+01 -2.0874773220175708e+01 -1.2984115721895463e+02 0 0 0
1906 55 2 0.0000000000000000e+00 -5.8541129046327924e+01 -1.5420783764800492e+01 -1.3330528265791719e+02 0 0 0
5903 169 4 0.0000000000000000e+00 -2.0809586315123104e+02 -9.3528297038824384e+00 -1.2873299602091282e+02 0 0 0
5904 169 4 0.0000000000000000e+00 -2.1085503853532921e+02 -1.8148977477036738e+00 -1.3383069873078043e+02 0 0 0
2909 84 1 0.0000000000000000e+00 -1.7814866498914461e+02 -9.3047075256026552e+00 -1.3375298036579895e+02 0 0 0
2908 84 2 0.0000000000000000e+00 -1.8599292932788029e+02 -8.7347403468460811e+00 -1.2709896676601456e+02 0 0 0
5898 169 3 0.0000000000000000e+00 -1.6758006758891275e+02 -8.7859892365534904e+00 -1.2962873226795386e+02 0 0 0
5897 169 4 0.0000000000000000e+00 -1.5906474558408971e+02 -4.4150338868856061e+00 -1.2996327269669320e+02 0 0 0
6055 173 4 0.0000000000000000e+00 -9.6895923432020112e+01 -4.1014069926240895e+00 -1.2613894153621708e+02 0 0 0
1907 55 2 0.0000000000000000e+00 -6.5059085287742377e+01 -7.8537932462648312e+00 -1.3486148257547427e+02 0 0 0
2915 84 2 0.0000000000000000e+00 -1.9528058683583754e+02 4.4290451795985062e+00 -1.3438856025708347e+02 0 0 0
2914 84 2 0.0000000000000000e+00 -1.8563497861554814e+02 1.2902915104240422e+00 -1.3316267026428218e+02 0 0 0
2913 84 2 0.0000000000000000e+00 -1.7618482270037012e+02 3.7276114775939124e+00 -1.3534720243926532e+02 0 0 0
5896 169 4 0.0000000000000000e+00 -1.5321668683605654e+02 -1.1358660758297507e+00 -1.3706222336481235e+02 0 0 0
1911 55 2 0.0000000000000000e+00 -8.5020812996038117e+01 1.0267471594238181e+01 -1.2880484664333702e+02 0 0 0