LAMMPS data file via write_data, version 5 Jun 2019, timestep = 330000000

7000 atoms
4 atom types
7259 bonds
3 bond types
6600 angles
2 angle types

-5.0000000000000000e+02 5.0000000000000000e+02 xlo xhi
-5.0000000000000000e+02 5.0000000000000000e+02 ylo yhi
-5.0000000000000000e+02 5.0000000000000000e+02 zlo zhi

Masses

1 1000
2 1000
3 1000
4 1000

Pair Coeffs # lj/cut

1 0.178 10
2 0.178 10
3 0.178 10
4 0.178 10

Angle Coeffs # cosine

1 2
2 2

Atoms # full

6259 179 4 0.0000000000000000e+00 -1.1736288183368808e+02 -7.6192450766987847e+01 -2.3726823967983668e+02 0 0 0
6258 179 4 0.0000000000000000e+00 -1.1087163712338378e+02 -8.2445124460398844e+01 -2.3279390567705252e+02 0 0 0
2815 81 2 0.0000000000000000e+00 -8.2204023271345903e+01 -8.1530671387778270e+01 -2.3505639584365767e+02 0 0 0
2814 81 2 0.0000000000000000e+00 -7.9983064039991532e+01 -7.3124309720957811e+01 -2.4037604046938276e+02 0 0 0
6260 179 4 0.0000000000000000e+00 -1.1247541848973860e+02 -6.8695223010131741e+01 -2.3437507791832817e+02 0 0 0
2813 81 2 0.0000000000000000e+00 -7.8397976552891322e+01 -6.4530068478647635e+01 -2.3581452383337319e+02 0 0 0
2812 81 2 0.0000000000000000e+00 -8.5221754098286411e+01 -5.8181471527932899e+01 -2.3389943774441647e+02 0 0 0
2811 81 1 0.0000000000000000e+00 -9.2312286677960884e+01 -5.2206756443562632e+01 -2.3101948886286220e+02 0 0 0
6248 179 3 0.0000000000000000e+00 -8.2480614464074492e+01 -1.0175145696679009e+02 -2.1681207013646480e+02 0 0 0
2818 81 1 0.0000000000000000e+00 -7.1579918205901819e+01 -9.9695328877359970e+01 -2.1653666370912700e+02 0 0 0
6250 179 4 0.0000000000000000e+00 -9.3584943320473656e+01 -9.1600023877422629e+01 -2.1789650403533255e+02 0 0 0
2816 81 2 0.0000000000000000e+00 -8.1413958227363963e+01 -9.0237369751640657e+01 -2.2978491847517225e+02 0 0 0
2817 81 2 0.0000000000000000e+00 -7.4957011446794894e+01 -9.4530313713167317e+01 -2.2342725513518715e+02 0 0 0
6249 179 4 0.0000000000000000e+00 -8.4033514623325217e+01 -9.1780796210171502e+01 -2.1867230153528715e+02 0 0 0
2801 81 2 0.0000000000000000e+00 -1.5809394127119654e+02 -7.1169974569742834e+01 -2.2213627919033902e+02 0 0 0
6257 179 4 0.0000000000000000e+00 -1.1167248060119863e+02 -8.4666766401816730e+01 -2.2304665356085945e+02 0 0 0
6252 179 4 0.0000000000000000e+00 -1.0491007974650350e+02 -7.6207074782123911e+01 -2.2043745438147189e+02 0 0 0
6251 179 4 0.0000000000000000e+00 -9.9680199905062310e+01 -8.4784796075139283e+01 -2.2107485460321365e+02 0 0 0
6545 187 4 0.0000000000000000e+00 -1.6820467352917640e+02 -6.0909321987715991e+01 -2.1743239578975121e+02 0 0 0
6261 179 4 0.0000000000000000e+00 -1.0363851335574283e+02 -6.5625457735949183e+01 -2.2959578003864053e+02 0 0 0
2809 81 2 0.0000000000000000e+00 -1.0600131618210504e+02 -5.7354663048784651e+01 -2.1810312596690480e+02 0 0 0
6262 179 3 0.0000000000000000e+00 -9.4512200588737343e+01 -6.2408516025360150e+01 -2.2635755971029613e+02 0 0 0
6263 179 4 0.0000000000000000e+00 -8.6134428043713825e+01 -6.2914506512664353e+01 -2.2019615469542981e+02 0 0 0
2810 81 2 0.0000000000000000e+00 -1.0021193343151812e+02 -5.3976067162194013e+01 -2.2571577702597210e+02 0 0 0
6246 179 4 0.0000000000000000e+00 -7.7362912629227480e+01 -1.1336703709446088e+02 -2.0347466337675365e+02 0 0 0
6247 179 4 0.0000000000000000e+00 -8.0986711092997453e+01 -1.0994241275235223e+02 -2.1163148520517126e+02 0 0 0
2819 81 2 0.0000000000000000e+00 -6.5318108661374495e+01 -1.0420269347374035e+02 -2.1006006412440328e+02 0 0 0
6256 179 4 0.0000000000000000e+00 -1.1170626352106412e+02 -8.5060634694708483e+01 -2.1360969825060366e+02 0 0 0
2087 60 2 0.0000000000000000e+00 -7.2216304098714460e+01 -8.8007325413321283e+01 -2.0331800752866576e+02 0 0 0
6253 179 4 0.0000000000000000e+00 -1.0997339737596987e+02 -7.1407749950347906e+01 -2.1257550620506157e+02 0 0 0
6255 179 3 0.0000000000000000e+00 -1.0869598333655557e+02 -7.9886421886765206e+01 -2.0570979459095815e+02 0 0 0
2083 60 1 0.0000000000000000e+00 -1.0047603487248057e+02 -7.2874098814108521e+01 -2.0405175510244194e+02 0 0 0
6265 179 4 0.0000000000000000e+00 -8.0865502106937640e+01 -7.9608191674318562e+01 -2.1126536975246128e+02 0 0 0
6264 179 4 0.0000000000000000e+00 -8.5323911370049288e+01 -7.1557995429380441e+01 -2.1527494247944384e+02 0 0 0
6335 181 4 0.0000000000000000e+00 -6.0090567715670879e+01 -7.3822518442893781e+01 -2.1437417445956748e+02 0 0 0
6544 187 4 0.0000000000000000e+00 -1.6671017019638160e+02 -6.7487646948699634e+01 -2.0932586975965074e+02 0 0 0
2802 81 2 0.0000000000000000e+00 -1.5288932048846752e+02 -6.9097096205088945e+01 -2.1420468813277500e+02 0 0 0
2803 81 2 0.0000000000000000e+00 -1.4941038986215838e+02 -6.5836523652981640e+01 -2.0532520308288346e+02 0 0 0
2807 81 2 0.0000000000000000e+00 -1.1831230395157428e+02 -6.4592108221343082e+01 -2.0392998236693424e+02 0 0 0
2808 81 2 0.0000000000000000e+00 -1.1036807142443865e+02 -6.1738186411982326e+01 -2.0996760464051610e+02 0 0 0
6245 179 4 0.0000000000000000e+00 -7.5994447672930434e+01 -1.1510946216808618e+02 -1.9373733978961619e+02 0 0 0
6244 179 4 0.0000000000000000e+00 -8.1694894800819583e+01 -1.2315985319028363e+02 -1.9133891785724384e+02 0 0 0
2821 81 2 0.0000000000000000e+00 -6.1236763900075253e+01 -1.1273554351774141e+02 -1.9594521781744410e+02 0 0 0
2820 81 2 0.0000000000000000e+00 -5.9964712242183886e+01 -1.0369297521710025e+02 -2.0164143567729312e+02 0 0 0
2086 60 2 0.0000000000000000e+00 -8.1874494288201959e+01 -8.7840738977467097e+01 -2.0065733079258999e+02 0 0 0
2088 60 2 0.0000000000000000e+00 -6.2971156125424393e+01 -8.4943233903377546e+01 -2.0047918290059471e+02 0 0 0
6542 187 3 0.0000000000000000e+00 -1.5286593777178521e+02 -7.3971090529415093e+01 -1.9729490209847310e+02 0 0 0
2805 81 2 0.0000000000000000e+00 -1.3567087791493267e+02 -7.1267001624167975e+01 -1.9856561819336710e+02 0 0 0
2084 60 2 0.0000000000000000e+00 -9.4479399110363346e+01 -7.5478509035076328e+01 -1.9700600769529373e+02 0 0 0
2085 60 2 0.0000000000000000e+00 -8.8881156369052107e+01 -8.3473831620505038e+01 -1.9543695375333294e+02 0 0 0
6543 187 4 0.0000000000000000e+00 -1.5991425819271066e+02 -6.9254011423698216e+01 -2.0279657893897178e+02 0 0 0
2804 81 1 0.0000000000000000e+00 -1.4440772190605961e+02 -6.7527179629539035e+01 -1.9642635926804056e+02 0 0 0
2806 81 2 0.0000000000000000e+00 -1.2634599319182684e+02 -6.9230373352809721e+01 -2.0047916595468388e+02 0 0 0
6254 179 4 0.0000000000000000e+00 -1.0992997199064816e+02 -7.0580257550412213e+01 -2.0236138134184839e+02 0 0 0
2081 60 2 0.0000000000000000e+00 -1.0801177032724910e+02 -6.0801859505045854e+01 -1.9650086580850990e+02 0 0 0
2082 60 2 0.0000000000000000e+00 -9.9783216525980492e+01 -6.5544906258921245e+01 -1.9777866627170920e+02 0 0 0
6242 179 4 0.0000000000000000e+00 -9.1486422597527678e+01 -1.3089819694462270e+02 -1.7632328648347831e+02 0 0 0
6243 179 4 0.0000000000000000e+00 -8.6898309956539521e+01 -1.2733365715091000e+02 -1.8389542110413385e+02 0 0 0
2940 84 2 0.0000000000000000e+00 -1.0689362160111504e+02 -1.1559623923898184e+02 -1.8885892933977030e+02 0 0 0
2939 84 2 0.0000000000000000e+00 -1.0650416112441356e+02 -1.1606218281383248e+02 -1.7870992803493957e+02 0 0 0
2823 81 2 0.0000000000000000e+00 -6.9101524199106578e+01 -1.1979093338664144e+02 -1.8193100424974978e+02 0 0 0
2822 81 2 0.0000000000000000e+00 -6.1847022650741287e+01 -1.1517585083466589e+02 -1.8611244413269296e+02 0 0 0
6540 187 4 0.0000000000000000e+00 -1.5676966091329282e+02 -6.2143160880838060e+01 -1.8304227117775190e+02 0 0 0
6541 187 4 0.0000000000000000e+00 -1.5553716877897531e+02 -6.9879288491005127e+01 -1.8902131627853370e+02 0 0 0
6539 187 4 0.0000000000000000e+00 -1.5108817368759028e+02 -5.6428944406689446e+01 -1.7708940734124383e+02 0 0 0
2080 60 2 0.0000000000000000e+00 -1.1077824280682937e+02 -5.5882079542837900e+01 -1.8803482351866859e+02 0 0 0
2079 60 2 0.0000000000000000e+00 -1.1043842177788731e+02 -4.9372615549733290e+01 -1.8085016323781454e+02 0 0 0
2934 84 2 0.0000000000000000e+00 -1.3734710299310748e+02 -1.3843287421782972e+02 -1.6472260167393028e+02 0 0 0
2935 84 2 0.0000000000000000e+00 -1.2723573293158069e+02 -1.3627410736617469e+02 -1.6572179063226005e+02 0 0 0
2936 84 2 0.0000000000000000e+00 -1.1779631104446975e+02 -1.3614173743287185e+02 -1.6375567897233350e+02 0 0 0
2937 84 1 0.0000000000000000e+00 -1.0920114648322988e+02 -1.3284402739373928e+02 -1.6730457392956734e+02 0 0 0
6241 179 3 0.0000000000000000e+00 -9.8153006852740035e+01 -1.3160256405996242e+02 -1.6843443213255205e+02 0 0 0
2938 84 2 0.0000000000000000e+00 -1.0833019043146552e+02 -1.2488270862307559e+02 -1.7298698738111287e+02 0 0 0
2825 81 1 0.0000000000000000e+00 -7.3010923005300498e+01 -1.1846365106769359e+02 -1.6478173206616080e+02 0 0 0
6304 181 3 0.0000000000000000e+00 -6.2500402648715401e+01 -1.2065959126296671e+02 -1.6312479500150235e+02 0 0 0
2824 81 2 0.0000000000000000e+00 -7.2512272957165138e+01 -1.1453268594562373e+02 -1.7386941761642430e+02 0 0 0
6302 181 4 0.0000000000000000e+00 -6.4598299905868913e+01 -1.0026518211064588e+02 -1.6592979123588489e+02 0 0 0
6303 181 4 0.0000000000000000e+00 -6.4586860721269744e+01 -1.1103417290483141e+02 -1.6548042410086745e+02 0 0 0
6301 181 4 0.0000000000000000e+00 -6.1222964343650759e+01 -9.5124188132859445e+01 -1.7302254959269195e+02 0 0 0
1540 44 2 0.0000000000000000e+00 -1.0223202944574960e+02 -7.3721256198267170e+01 -1.6614702681945059e+02 0 0 0
1539 44 2 0.0000000000000000e+00 -1.0314127122416984e+02 -6.3576910733329129e+01 -1.6381508839361155e+02 0 0 0
6538 187 4 0.0000000000000000e+00 -1.4911609122149616e+02 -5.6202913253189543e+01 -1.6745319802187976e+02 0 0 0
2933 84 2 0.0000000000000000e+00 -1.3861243176498220e+02 -1.3368535267299814e+02 -1.5602823341952143e+02 0 0 0
6240 179 4 0.0000000000000000e+00 -1.0201238850929589e+02 -1.2687339237293801e+02 -1.6018271190635687e+02 0 0 0
6239 179 4 0.0000000000000000e+00 -1.0306009891009955e+02 -1.3013634335414667e+02 -1.5150321731061183e+02 0 0 0
2932 84 2 0.0000000000000000e+00 -1.3910168966623797e+02 -1.2492357592684850e+02 -1.5131616089476384e+02 0 0 0
2826 81 2 0.0000000000000000e+00 -7.4977615007948472e+01 -1.1843838396507337e+02 -1.5485032859108333e+02 0 0 0
6305 181 4 0.0000000000000000e+00 -6.2354213124987467e+01 -1.1369690183565329e+02 -1.5528021910994349e+02 0 0 0
2626 76 2 0.0000000000000000e+00 -9.3370770587163975e+01 -9.6095811757888370e+01 -1.5033581310705355e+02 0 0 0
5537 159 4 0.0000000000000000e+00 -1.2398012544919268e+02 -8.1220042455290553e+01 -1.5554970499779972e+02 0 0 0
5538 159 4 0.0000000000000000e+00 -1.1468883243907986e+02 -8.0026340316772846e+01 -1.6040428821326091e+02 0 0 0
5539 159 4 0.0000000000000000e+00 -1.1093984059590673e+02 -7.1691621067310791e+01 -1.5685690029817601e+02 0 0 0
6537 187 4 0.0000000000000000e+00 -1.4283901312589899e+02 -5.7894147414694757e+01 -1.5981874658728600e+02 0 0 0
1536 44 2 0.0000000000000000e+00 -1.2034709036015883e+02 -6.0417569405381983e+01 -1.5351278414686303e+02 0 0 0
5540 159 4 0.0000000000000000e+00 -1.0578297542282078e+02 -6.3463787312391474e+01 -1.5333856227190722e+02 0 0 0
2075 60 2 0.0000000000000000e+00 -9.0491197897743106e+01 -5.7906117432437256e+01 -1.6190472676242132e+02 0 0 0
5541 159 3 0.0000000000000000e+00 -9.8013639216600197e+01 -5.7412589217830863e+01 -1.5360091574959290e+02 0 0 0
2074 60 2 0.0000000000000000e+00 -8.1839632129875127e+01 -5.9396597937945700e+01 -1.5760856470663018e+02 0 0 0
6536 187 4 0.0000000000000000e+00 -1.3496401719290162e+02 -5.2211025954225192e+01 -1.6095001566425799e+02 0 0 0
6535 187 3 0.0000000000000000e+00 -1.2504304513080395e+02 -4.9191699208104843e+01 -1.5994272588688898e+02 0 0 0
1537 44 1 0.0000000000000000e+00 -1.1529525924082988e+02 -5.4664877114229967e+01 -1.5899024273421807e+02 0 0 0
6534 187 4 0.0000000000000000e+00 -1.1601790939282981e+02 -4.4459227996010938e+01 -1.5993020094745194e+02 0 0 0
1538 44 2 0.0000000000000000e+00 -1.0602025173082068e+02 -5.4479310700245357e+01 -1.6244526412017990e+02 0 0 0
2076 60 1 0.0000000000000000e+00 -9.6484356057985138e+01 -5.0134693676827304e+01 -1.6228517950467844e+02 0 0 0
2072 60 2 0.0000000000000000e+00 -6.8803128320463358e+01 -5.1345011715235096e+01 -1.5331529603553346e+02 0 0 0
2071 60 2 0.0000000000000000e+00 -6.2534934809741344e+01 -5.0034343144265797e+01 -1.6064872554859392e+02 0 0 0
6238 179 4 0.0000000000000000e+00 -9.8732885248617777e+01 -1.3200377453648309e+02 -1.4260918817668872e+02 0 0 0
2828 81 2 0.0000000000000000e+00 -7.1648093202668122e+01 -1.3069410939601505e+02 -1.4183784748661253e+02 0 0 0
2931 84 2 0.0000000000000000e+00 -1.4043147836047820e+02 -1.1617290831089487e+02 -1.4722269910834319e+02 0 0 0
2827 81 2 0.0000000000000000e+00 -6.9417285082333478e+01 -1.2402075697184026e+02 -1.4893752374846849e+02 0 0 0
2930 84 1 0.0000000000000000e+00 -1.4088994654094131e+02 -1.0990339072629193e+02 -1.3998265201169815e+02 0 0 0
5563 159 4 0.0000000000000000e+00 -1.3004264968121888e+02 -1.0657135819886808e+02 -1.3606863823885064e+02 0 0 0
2627 76 2 0.0000000000000000e+00 -9.1237074700775594e+01 -9.6792166233360774e+01 -1.4079691603751186e+02 0 0 0
1532 44 2 0.0000000000000000e+00 -1.4604032896452108e+02 -7.6631082192045056e+01 -1.4191689905787015e+02 0 0 0
5536 159 4 0.0000000000000000e+00 -1.2991525634764801e+02 -7.7066433012295192e+01 -1.4885194125973328e+02 0 0 0
5535 159 4 0.0000000000000000e+00 -1.3033542514679010e+02 -7.6965075761695431e+01 -1.3903191908735363e+02 0 0 0
1366 40 2 0.0000000000000000e+00 -1.0320162923799779e+02 -7.7369067979709669e+01 -1.4479036137512591e+02 0 0 0
1367 40 2 0.0000000000000000e+00 -1.1101517121396849e+02 -7.9833300252410041e+01 -1.3883030438894335e+02 0 0 0
1533 44 2 0.0000000000000000e+00 -1.3801157951314806e+02 -7.0725938171244337e+01 -1.4225287908136141e+02 0 0 0
1534 44 2 0.0000000000000000e+00 -1.3015046402477370e+02 -6.4888254313812652e+01 -1.4433491276453736e+02 0 0 0
1527 44 2 0.0000000000000000e+00 -1.1296567738262331e+02 -6.4044545920057431e+01 -1.3603356872991191e+02 0 0 0
1535 44 2 0.0000000000000000e+00 -1.2666223471612629e+02 -5.5190481306556464e+01 -1.4783689970414940e+02 0 0 0
5542 159 4 0.0000000000000000e+00 -9.5371192433323529e+01 -5.3665508591332340e+01 -1.4430939766718103e+02 0 0 0
2073 60 2 0.0000000000000000e+00 -7.6969779694308059e+01 -5.5939251088890870e+01 -1.4886226474101778e+02 0 0 0
6236 179 4 0.0000000000000000e+00 -9.6432982804615975e+01 -1.2885672202052854e+02 -1.2402108495144964e+02 0 0 0
6237 179 4 0.0000000000000000e+00 -9.7564574537988861e+01 -1.2710219785317167e+02 -1.3403237504170963e+02 0 0 0
2829 81 2 0.0000000000000000e+00 -7.7485624325398618e+01 -1.3277789092855500e+02 -1.3344989916433633e+02 0 0 0
2830 81 2 0.0000000000000000e+00 -7.5889384135823335e+01 -1.3770832801128211e+02 -1.2470814738324569e+02 0 0 0
2831 81 2 0.0000000000000000e+00 -8.5834647696797703e+01 -1.3850709809617834e+02 -1.2210882924528416e+02 0 0 0
4726 136 4 0.0000000000000000e+00 -6.3369612207097965e+01 -1.3397090522680139e+02 -1.3533056947861198e+02 0 0 0
5562 159 3 0.0000000000000000e+00 -1.3373822806999880e+02 -1.1488879552221044e+02 -1.3238654087047394e+02 0 0 0
5561 159 4 0.0000000000000000e+00 -1.3815312187366825e+02 -1.1766429592669570e+02 -1.2370799564553268e+02 0 0 0
2630 76 2 0.0000000000000000e+00 -7.2716513956610967e+01 -1.1463381382741223e+02 -1.2603484967693753e+02 0 0 0
2631 76 2 0.0000000000000000e+00 -6.6363176822686000e+01 -1.2168727178050490e+02 -1.2424454019064174e+02 0 0 0
2929 84 2 0.0000000000000000e+00 -1.4002718727373781e+02 -1.0260055534529633e+02 -1.3236364927127434e+02 0 0 0
5559 159 4 0.0000000000000000e+00 -1.3522247039395876e+02 -1.0114192569819204e+02 -1.2304156545260376e+02 0 0 0
5560 159 4 0.0000000000000000e+00 -1.4167386998815036e+02 -1.0833475963954966e+02 -1.2232816171134117e+02 0 0 0
5565 159 4 0.0000000000000000e+00 -1.2314521348308561e+02 -1.0903970337551368e+02 -1.2551056827415540e+02 0 0 0
5564 159 4 0.0000000000000000e+00 -1.2399166893955777e+02 -1.0031453455912623e+02 -1.3017625091321636e+02 0 0 0
2629 76 1 0.0000000000000000e+00 -8.0039098245507390e+01 -1.0675360988503762e+02 -1.2741961750068036e+02 0 0 0
2628 76 2 0.0000000000000000e+00 -8.5203223382184149e+01 -1.0016546952714658e+02 -1.3325997604573851e+02 0 0 0
6311 181 3 0.0000000000000000e+00 -6.9252249663071822e+01 -1.0335890541179820e+02 -1.2842808035637066e+02 0 0 0
6312 181 4 0.0000000000000000e+00 -6.2300177850945964e+01 -1.1010576184201152e+02 -1.2798521057809637e+02 0 0 0
2928 84 2 0.0000000000000000e+00 -1.4649355950008564e+02 -9.5976108502169751e+01 -1.2819562701010170e+02 0 0 0
2927 84 2 0.0000000000000000e+00 -1.5191304660783220e+02 -8.7415489054559131e+01 -1.2598247781184189e+02 0 0 0
1369 40 1 0.0000000000000000e+00 -1.2228888303871490e+02 -8.7760064872938784e+01 -1.2758644079150433e+02 0 0 0
5558 159 4 0.0000000000000000e+00 -1.2814544703036927e+02 -9.3470633404125010e+01 -1.2262926965461902e+02 0 0 0
1370 40 2 0.0000000000000000e+00 -1.1293839051890826e+02 -9.1686830654205409e+01 -1.2577911545164369e+02 0 0 0
1371 40 2 0.0000000000000000e+00 -1.0365975213464353e+02 -9.4737410901506195e+01 -1.2373536808365067e+02 0 0 0
1373 40 2 0.0000000000000000e+00 -8.5338398432248354e+01 -9.4271411010498113e+01 -1.2220427838142143e+02 0 0 0
6310 181 4 0.0000000000000000e+00 -6.3734599155990580e+01 -9.4770284201732295e+01 -1.2945395954001458e+02 0 0 0
1531 44 2 0.0000000000000000e+00 -1.4306850057429253e+02 -7.6630600896473922e+01 -1.3203087623111318e+02 0 0 0
5534 159 3 0.0000000000000000e+00 -1.3341149014315823e+02 -8.3533269703225244e+01 -1.3178135988890605e+02 0 0 0
1530 44 1 0.0000000000000000e+00 -1.3665345375880176e+02 -7.4903591467418039e+01 -1.2515164224830338e+02 0 0 0
5533 159 4 0.0000000000000000e+00 -1.3706505649014051e+02 -8.3854903599315506e+01 -1.2276854794047216e+02 0 0 0
1529 44 2 0.0000000000000000e+00 -1.2744915925246215e+02 -7.1374367565411447e+01 -1.2845322717342714e+02 0 0 0
1368 40 2 0.0000000000000000e+00 -1.1946195348439652e+02 -8.1248551466716506e+01 -1.3374190725240797e+02 0 0 0
3718 107 4 0.0000000000000000e+00 -1.3709489472911628e+02 -6.2900726860089620e+01 -1.2700992209535669e+02 0 0 0
1528 44 2 0.0000000000000000e+00 -1.2132584640457439e+02 -6.8780017005561220e+01 -1.3491791800363711e+02 0 0 0
5545 159 4 0.0000000000000000e+00 -7.6495477856192750e+01 -5.8494449059515794e+01 -1.2280406875922915e+02 0 0 0
6184 177 4 0.0000000000000000e+00 -1.6076955909796354e+02 -4.6268350327846242e+01 -1.2299406547159656e+02 0 0 0
3719 107 4 0.0000000000000000e+00 -1.3286161119575456e+02 -5.4966544135118880e+01 -1.3060255556349986e+02 0 0 0
3720 107 4 0.0000000000000000e+00 -1.2973294904480028e+02 -4.5949525416029729e+01 -1.2680191871905330e+02 0 0 0
1526 44 2 0.0000000000000000e+00 -1.1015619890268773e+02 -5.5805794408874100e+01 -1.3193867040225800e+02 0 0 0
1525 44 2 0.0000000000000000e+00 -1.0933811865508734e+02 -4.5761821924992155e+01 -1.3098301515617226e+02 0 0 0
5543 159 4 0.0000000000000000e+00 -9.1368303214103904e+01 -5.4873195203950921e+01 -1.3514792988860995e+02 0 0 0
1514 44 2 0.0000000000000000e+00 -9.7627397006011805e+01 -4.5323820194422488e+01 -1.2760136968541438e+02 0 0 0
6528 187 3 0.0000000000000000e+00 -8.0774365589603875e+01 -4.7706684770452298e+01 -1.2456109904340050e+02 0 0 0
5544 159 4 0.0000000000000000e+00 -8.4618342098396923e+01 -5.6132506379043726e+01 -1.2784483937975637e+02 0 0 0
1634 47 2 0.0000000000000000e+00 -6.2445774896454751e+01 -4.3581134046636002e+01 -1.3361792319115858e+02 0 0 0
6234 179 3 0.0000000000000000e+00 -9.5657614814961590e+01 -1.4277116381749045e+02 -1.1101668413356941e+02 0 0 0
6233 179 4 0.0000000000000000e+00 -8.6427060192326877e+01 -1.4599157220037648e+02 -1.1391981934413863e+02 0 0 0
6232 179 4 0.0000000000000000e+00 -7.6893491582533102e+01 -1.4666257604026964e+02 -1.1733476351772441e+02 0 0 0
6231 179 4 0.0000000000000000e+00 -6.7628070806182095e+01 -1.5115333196179466e+02 -1.1763011696818843e+02 0 0 0
6235 179 4 0.0000000000000000e+00 -9.8767396475097613e+01 -1.3595611922072234e+02 -1.1717874579425903e+02 0 0 0
2832 81 1 0.0000000000000000e+00 -8.9036299274805188e+01 -1.3451241040497698e+02 -1.1386653908021070e+02 0 0 0
5557 159 4 0.0000000000000000e+00 -1.2131711100438679e+02 -8.9310914662310154e+01 -1.1681550498492523e+02 0 0 0
5556 159 4 0.0000000000000000e+00 -1.1222747727969360e+02 -8.8838440695041939e+01 -1.1152654246803613e+02 0 0 0
1372 40 2 0.0000000000000000e+00 -9.4821038288939945e+01 -9.7565197643354324e+01 -1.2103106561738484e+02 0 0 0
1374 40 2 0.0000000000000000e+00 -7.6117046982578657e+01 -9.0536468160185208e+01 -1.2000328726931335e+02 0 0 0
1375 40 2 0.0000000000000000e+00 -6.8444800984595673e+01 -8.9506932154438502e+01 -1.1383697812178752e+02 0 0 0
2531 73 1 0.0000000000000000e+00 -1.5739259871886287e+02 -7.5266695212806994e+01 -1.1259039572693021e+02 0 0 0
2926 84 2 0.0000000000000000e+00 -1.5030748079636697e+02 -7.9446514652153496e+01 -1.1971261535348140e+02 0 0 0
5532 159 4 0.0000000000000000e+00 -1.4125910789770248e+02 -8.3216021938182806e+01 -1.1357252876785890e+02 0 0 0
2528 73 2 0.0000000000000000e+00 -1.3354477618663310e+02 -7.7898376459567743e+01 -1.1618864585637095e+02 0 0 0
2529 73 2 0.0000000000000000e+00 -1.4052410183901586e+02 -7.1037308650850932e+01 -1.1377152180497026e+02 0 0 0
2527 73 2 0.0000000000000000e+00 -1.2789245378022403e+02 -8.3979772635973049e+01 -1.1159336937581706e+02 0 0 0
5547 159 4 0.0000000000000000e+00 -7.5501183987843589e+01 -7.3845894794757115e+01 -1.1725558097470918e+02 0 0 0
2925 84 2 0.0000000000000000e+00 -1.5615764278407767e+02 -7.0657962130383652e+01 -1.2063098998273362e+02 0 0 0
2924 84 2 0.0000000000000000e+00 -1.6258086623789205e+02 -6.2963306654697313e+01 -1.1886316443236625e+02 0 0 0
2923 84 1 0.0000000000000000e+00 -1.5388668450253931e+02 -5.7832264045606962e+01 -1.2006315172875424e+02 0 0 0
2530 73 2 0.0000000000000000e+00 -1.5001004196239950e+02 -6.8691099810130083e+01 -1.1247957830676121e+02 0 0 0
3717 107 4 0.0000000000000000e+00 -1.3808247164253649e+02 -6.1398417663256602e+01 -1.1711249765295689e+02 0 0 0
1512 44 2 0.0000000000000000e+00 -1.0719490176866043e+02 -6.0638193599505207e+01 -1.2057953460345998e+02 0 0 0
5522 158 4 0.0000000000000000e+00 -1.0044411334328922e+02 -6.7622882701684574e+01 -1.1171039414683881e+02 0 0 0
5523 158 4 0.0000000000000000e+00 -9.4575452259657652e+01 -6.3422462493840811e+01 -1.1859171315701840e+02 0 0 0
5546 159 4 0.0000000000000000e+00 -7.0583877692629358e+01 -6.5479472907916204e+01 -1.1895039853302686e+02 0 0 0
6185 177 3 0.0000000000000000e+00 -1.5880733249070866e+02 -4.9998182508240518e+01 -1.1432545959946486e+02 0 0 0
2922 84 2 0.0000000000000000e+00 -1.4859425114577874e+02 -4.9523111824100447e+01 -1.2153989464527265e+02 0 0 0
3716 107 4 0.0000000000000000e+00 -1.3149246454524976e+02 -5.5970931431016680e+01 -1.1268970887415708e+02 0 0 0
3715 107 4 0.0000000000000000e+00 -1.2365338197631198e+02 -4.9481529869859330e+01 -1.0992382638487516e+02 0 0 0
1513 44 2 0.0000000000000000e+00 -1.0363947773061533e+02 -5.0859968925353094e+01 -1.2162394226228527e+02 0 0 0
1511 44 2 0.0000000000000000e+00 -1.0891503196251617e+02 -5.6870909673537206e+01 -1.1200005723062033e+02 0 0 0
5524 158 4 0.0000000000000000e+00 -8.9691966367194425e+01 -5.4398328606170971e+01 -1.1810490612441239e+02 0 0 0
5525 158 4 0.0000000000000000e+00 -9.0767651586856516e+01 -4.5069040650368933e+01 -1.1460601458440756e+02 0 0 0
6527 187 4 0.0000000000000000e+00 -7.8544734476808173e+01 -4.5152599729754776e+01 -1.1535502899907193e+02 0 0 0
6507 186 3 0.0000000000000000e+00 -1.7284231392916089e+02 -1.6134608291665756e+02 -1.0244291046627355e+02 0 0 0
6506 186 4 0.0000000000000000e+00 -1.6422876443077075e+02 -1.6468982665539903e+02 -1.0012190918482493e+02 0 0 0
6505 186 4 0.0000000000000000e+00 -1.5459540476698569e+02 -1.6725119838376850e+02 -9.6471607339048433e+01 0 0 0
6504 186 4 0.0000000000000000e+00 -1.4937237507032850e+02 -1.6051371342524257e+02 -1.0180015530996346e+02 0 0 0
6502 186 4 0.0000000000000000e+00 -1.5475188089706961e+02 -1.4261050171117327e+02 -9.7181645844911330e+01 0 0 0
6503 186 4 0.0000000000000000e+00 -1.4996414848915629e+02 -1.5068808038659571e+02 -9.8659788711933700e+01 0 0 0
6501 186 4 0.0000000000000000e+00 -1.5865455563181217e+02 -1.3426397508201700e+02 -1.0011387878626488e+02 0 0 0
2555 73 2 0.0000000000000000e+00 -1.3297229105413263e+02 -1.3421602561120818e+02 -9.9087283347542780e+01 0 0 0
2834 81 2 0.0000000000000000e+00 -9.5629017089505894e+01 -1.3612576217441776e+02 -9.6703923335226307e+01 0 0 0
2833 81 2 0.0000000000000000e+00 -9.4038257251331473e+01 -1.3194234586611429e+02 -1.0533395791079643e+02 0 0 0
5133 147 4 0.0000000000000000e+00 -6.1880563580572897e+01 -1.2839581765653784e+02 -9.9051535824544501e+01 0 0 0
6500 186 3 0.0000000000000000e+00 -1.6439635929461616e+02 -1.2603604765421969e+02 -9.9335407536827617e+01 0 0 0
6499 186 4 0.0000000000000000e+00 -1.6545113369263609e+02 -1.1667514073466289e+02 -9.8179417265027411e+01 0 0 0
2552 73 1 0.0000000000000000e+00 -1.5530675221932117e+02 -1.2083164848673265e+02 -9.5619023136333425e+01 0 0 0
5134 147 4 0.0000000000000000e+00 -6.0090005297119696e+01 -1.1835611793180979e+02 -9.9848577291307024e+01 0 0 0
6476 186 4 0.0000000000000000e+00 -1.1705324528515337e+02 -1.0148493630521152e+02 -9.9438482763987764e+01 0 0 0
6477 186 4 0.0000000000000000e+00 -1.2636303764643155e+02 -1.0066249617211949e+02 -9.5555303972865943e+01 0 0 0
5553 159 4 0.0000000000000000e+00 -8.8642535777130675e+01 -9.8951282253112680e+01 -1.0534461190203324e+02 0 0 0
5136 147 4 0.0000000000000000e+00 -6.2009765815135005e+01 -9.9600295874181299e+01 -1.0446372094526123e+02 0 0 0
3730 107 4 0.0000000000000000e+00 -1.6716002724418141e+02 -8.9062779278319667e+01 -1.0462077988270941e+02 0 0 0
3731 107 4 0.0000000000000000e+00 -1.5938689846488029e+02 -9.4804518899707546e+01 -1.0105770960681967e+02 0 0 0
2526 73 2 0.0000000000000000e+00 -1.2575521614653142e+02 -8.7712785551802980e+01 -1.0230983828872333e+02 0 0 0
2525 73 2 0.0000000000000000e+00 -1.1681820860580314e+02 -8.7661823469695562e+01 -9.8248211192820634e+01 0 0 0
5555 159 3 0.0000000000000000e+00 -1.0350598793306034e+02 -8.8172812407069671e+01 -1.0671635445703066e+02 0 0 0
5554 159 4 0.0000000000000000e+00 -9.3852074616982691e+01 -9.0411555501337006e+01 -1.0644773003063021e+02 0 0 0
1378 40 2 0.0000000000000000e+00 -9.1295486827947613e+01 -8.8704895123776396e+01 -9.6423961070355304e+01 0 0 0
1379 40 2 0.0000000000000000e+00 -1.0057512813341880e+02 -9.0780271889368919e+01 -9.6437914632001011e+01 0 0 0
1376 40 1 0.0000000000000000e+00 -7.5651962814721657e+01 -8.9148378147950623e+01 -1.0697696599872302e+02 0 0 0
5552 159 4 0.0000000000000000e+00 -8.2130814343385225e+01 -9.5898926334445505e+01 -9.7947262339210155e+01 0 0 0
1377 40 2 0.0000000000000000e+00 -8.3866722910752884e+01 -8.6803994261062215e+01 -1.0231591348390063e+02 0 0 0
3729 107 4 0.0000000000000000e+00 -1.6550929971246171e+02 -8.0009110470526508e+01 -1.0789282139107146e+02 0 0 0
2533 73 2 0.0000000000000000e+00 -1.5676463287207525e+02 -8.1766823573474838e+01 -9.5001520226507211e+01 0 0 0
2532 73 2 0.0000000000000000e+00 -1.5491667079915385e+02 -7.6174114103214805e+01 -1.0304095461217351e+02 0 0 0
5531 159 4 0.0000000000000000e+00 -1.3898168278598811e+02 -8.4352421139666902e+01 -1.0428385059114156e+02 0 0 0
6189 177 4 0.0000000000000000e+00 -1.4042961078756073e+02 -7.2694501326857917e+01 -9.5265193320415676e+01 0 0 0
2524 73 1 0.0000000000000000e+00 -1.0783167787506548e+02 -8.3930596224421080e+01 -9.7787358283041939e+01 0 0 0
5548 159 3 0.0000000000000000e+00 -7.4902382100838452e+01 -7.7909697044704359e+01 -1.0841554208983787e+02 0 0 0
5549 159 4 0.0000000000000000e+00 -7.2837132409747241e+01 -8.0373233812251200e+01 -9.8338332560904831e+01 0 0 0
6186 177 4 0.0000000000000000e+00 -1.5739730602511383e+02 -5.7675284334007479e+01 -1.0793904346957048e+02 0 0 0
3728 107 3 0.0000000000000000e+00 -1.6611644026897443e+02 -6.9832697554229057e+01 -1.0842411591783190e+02 0 0 0
3727 107 4 0.0000000000000000e+00 -1.6666797790111201e+02 -6.1511617475668515e+01 -1.0277563065391054e+02 0 0 0
6187 177 4 0.0000000000000000e+00 -1.4772121740378211e+02 -6.0265051093660773e+01 -1.0671800777418372e+02 0 0 0
6188 177 4 0.0000000000000000e+00 -1.4010336530851689e+02 -6.3569760863754979e+01 -1.0109977199561892e+02 0 0 0
1510 44 2 0.0000000000000000e+00 -1.0913881977351957e+02 -6.2296790651827877e+01 -1.0360088125976455e+02 0 0 0
1509 44 1 0.0000000000000000e+00 -1.1242870966662940e+02 -6.9604809910128239e+01 -9.7697185512188156e+01 0 0 0
5521 158 4 0.0000000000000000e+00 -1.0019984229323101e+02 -7.0763670458992692e+01 -1.0174193058320019e+02 0 0 0
6524 187 4 0.0000000000000000e+00 -7.8028308049942822e+01 -6.5889603188117647e+01 -9.8493445219139261e+01 0 0 0
3726 107 4 0.0000000000000000e+00 -1.6016106385211324e+02 -5.5884342242645083e+01 -9.7925401563546458e+01 0 0 0
933 27 2 0.0000000000000000e+00 -1.5781304348733983e+02 -4.4500717856542600e+01 -1.0158596852986174e+02 0 0 0
931 27 2 0.0000000000000000e+00 -1.4388323586164424e+02 -4.3432545820718282e+01 -9.8116773817474936e+01 0 0 0
3723 107 4 0.0000000000000000e+00 -1.3405396372735453e+02 -4.8403398223146304e+01 -9.9664685167940945e+01 0 0 0
3714 107 3 0.0000000000000000e+00 -1.1838266176432569e+02 -4.6552789429272856e+01 -1.0312499086016579e+02 0 0 0
6526 187 4 0.0000000000000000e+00 -7.6045511168142397e+01 -4.9501623689505585e+01 -1.0710064215071442e+02 0 0 0
6525 187 4 0.0000000000000000e+00 -7.9961643732899077e+01 -5.7131586293238094e+01 -1.0261436228098741e+02 0 0 0
6508 186 4 0.0000000000000000e+00 -1.7573745991182128e+02 -1.5516663380637573e+02 -9.4738616168464603e+01 0 0 0
6509 186 4 0.0000000000000000e+00 -1.8004229012415456e+02 -1.4728994198855275e+02 -9.0479933307837925e+01 0 0 0
2835 81 2 0.0000000000000000e+00 -9.4757461369166350e+01 -1.4447017546222941e+02 -9.0094412918900417e+01 0 0 0
6510 186 4 0.0000000000000000e+00 -1.7980030152258146e+02 -1.3809558989816341e+02 -9.4695371571060036e+01 0 0 0