LAMMPS data file via write_data, version 5 Jun 2019, timestep = 340000000

7000 atoms
4 atom types
7269 bonds
3 bond types
6600 angles
2 angle types

-5.0000000000000000e+02 5.0000000000000000e+02 xlo xhi
-5.0000000000000000e+02 5.0000000000000000e+02 ylo yhi
-5.0000000000000000e+02 5.0000000000000000e+02 zlo zhi

Masses

1 1000
2 1000
3 1000
4 1000

Pair Coeffs # lj/cut

1 0.178 10
2 0.178 10
3 0.178 10
4 0.178 10

Angle Coeffs # cosine

1 2
2 2

Atoms # full

2834 81 2 0.0000000000000000e+00 -1.0871835302822564e+02 -1.4791014999279102e+02 -2.1573877854229525e+02 0 0 0
2835 81 2 0.0000000000000000e+00 -1.1582395773084464e+02 -1.4460738038231170e+02 -2.2205822872551772e+02 0 0 0
6231 179 4 0.0000000000000000e+00 -9.8966654291373715e+01 -1.1680881468055981e+02 -2.1805450629219811e+02 0 0 0
2832 81 1 0.0000000000000000e+00 -1.1121901484410523e+02 -1.3624091168035787e+02 -1.9909671226909154e+02 0 0 0
2833 81 2 0.0000000000000000e+00 -1.0852751168410914e+02 -1.4263774844574240e+02 -2.0686798683844754e+02 0 0 0
6235 179 4 0.0000000000000000e+00 -1.0003170867572580e+02 -1.4667345751285549e+02 -1.9955127956511259e+02 0 0 0
6234 179 3 0.0000000000000000e+00 -1.0011398746010224e+02 -1.3698745915210296e+02 -2.0193283431165713e+02 0 0 0
6232 179 4 0.0000000000000000e+00 -1.0284175510534713e+02 -1.2032661839236108e+02 -2.0992082137785184e+02 0 0 0
6233 179 4 0.0000000000000000e+00 -1.0478665021478949e+02 -1.2827528567474525e+02 -2.0371227411779574e+02 0 0 0
6262 179 3 0.0000000000000000e+00 -6.2216390738622643e+01 -7.8877303455582890e+01 -2.0115870588742473e+02 0 0 0
6261 179 4 0.0000000000000000e+00 -6.2948101426449931e+01 -6.9915052944270400e+01 -2.0629989843063450e+02 0 0 0
6237 179 4 0.0000000000000000e+00 -1.1869024471664119e+02 -1.4874758159365038e+02 -1.9466916129552419e+02 0 0 0
6238 179 4 0.0000000000000000e+00 -1.2598245958783245e+02 -1.5025610513084740e+02 -1.8705131909006803e+02 0 0 0
6236 179 4 0.0000000000000000e+00 -1.0805568831961010e+02 -1.4816554291471923e+02 -1.9407529750246474e+02 0 0 0
1366 40 2 0.0000000000000000e+00 -6.6394940725399508e+01 -1.5936591517307585e+02 -1.9397615986713035e+02 0 0 0
1367 40 2 0.0000000000000000e+00 -7.1895490749496318e+01 -1.5818106683299553e+02 -1.8577122125696630e+02 0 0 0
2830 81 2 0.0000000000000000e+00 -1.1825606139922229e+02 -1.2374389546411152e+02 -1.8566706905711794e+02 0 0 0
2831 81 2 0.0000000000000000e+00 -1.1336452640858606e+02 -1.2682793043041447e+02 -1.9505815216770154e+02 0 0 0
6264 179 4 0.0000000000000000e+00 -6.0535031755175922e+01 -9.5998692419240854e+01 -1.9163621361691384e+02 0 0 0
6263 179 4 0.0000000000000000e+00 -6.0012686974279880e+01 -8.6954348030039100e+01 -1.9473363789471449e+02 0 0 0
6335 181 4 0.0000000000000000e+00 -1.0580523706904020e+02 -6.1782770298061664e+01 -1.9522380163045128e+02 0 0 0
6334 181 4 0.0000000000000000e+00 -9.9149902980758739e+01 -6.3439640631661952e+01 -1.8780676970150304e+02 0 0 0
6309 181 4 0.0000000000000000e+00 -9.3156385956832054e+01 -1.6146371854070546e+02 -1.7751521115223568e+02 0 0 0
6310 181 4 0.0000000000000000e+00 -8.4547186513174225e+01 -1.6330376246156777e+02 -1.7333883378269002e+02 0 0 0
6239 179 4 0.0000000000000000e+00 -1.2465324883908978e+02 -1.5024250316213195e+02 -1.7750111094566503e+02 0 0 0
6307 181 4 0.0000000000000000e+00 -1.1088732535413544e+02 -1.5348767613730118e+02 -1.7669542445043200e+02 0 0 0
6308 181 4 0.0000000000000000e+00 -1.0179940801464339e+02 -1.5644153900435356e+02 -1.7989732647208828e+02 0 0 0
1368 40 2 0.0000000000000000e+00 -7.1344115891575683e+01 -1.5818698559974851e+02 -1.7581142390609824e+02 0 0 0
2823 81 2 0.0000000000000000e+00 -1.0283560823656353e+02 -1.3688314822594495e+02 -1.7522073026530791e+02 0 0 0
2819 81 2 0.0000000000000000e+00 -7.3099514136527205e+01 -1.3768549252723506e+02 -1.7229522879983443e+02 0 0 0
6301 181 4 0.0000000000000000e+00 -1.4279455978311194e+02 -1.2773888621888598e+02 -1.7892598022686408e+02 0 0 0
6302 181 4 0.0000000000000000e+00 -1.3399159276980390e+02 -1.2567461927863840e+02 -1.7542267585451546e+02 0 0 0
6303 181 4 0.0000000000000000e+00 -1.2486631048910449e+02 -1.2662796059677402e+02 -1.7319685280023387e+02 0 0 0
2824 81 2 0.0000000000000000e+00 -1.0987340178196250e+02 -1.3084112959730095e+02 -1.7219792490204193e+02 0 0 0
6248 179 3 0.0000000000000000e+00 -7.3636447968366681e+01 -1.2827365481171648e+02 -1.7297095955032017e+02 0 0 0
6249 179 4 0.0000000000000000e+00 -6.9459961437139995e+01 -1.2078142748759781e+02 -1.7644038244537458e+02 0 0 0
6250 179 4 0.0000000000000000e+00 -6.2865030075747889e+01 -1.2352198598479801e+02 -1.8309470430531738e+02 0 0 0
2829 81 2 0.0000000000000000e+00 -1.2501791416947918e+02 -1.1757863561365090e+02 -1.8041210688999914e+02 0 0 0
2828 81 2 0.0000000000000000e+00 -1.2748936621871091e+02 -1.1301574745949434e+02 -1.7152020916745752e+02 0 0 0
2816 81 2 0.0000000000000000e+00 -6.0601908599310910e+01 -1.1587856578325122e+02 -1.7411117282372797e+02 0 0 0
6333 181 4 0.0000000000000000e+00 -9.2083719715105218e+01 -6.6103587271736245e+01 -1.8126592466091066e+02 0 0 0
6332 181 3 0.0000000000000000e+00 -9.3135526527052491e+01 -6.5744778862220983e+01 -1.7109408918262412e+02 0 0 0
2091 60 2 0.0000000000000000e+00 -7.9008115292875104e+01 -5.6213094752624151e+01 -1.7800261199869260e+02 0 0 0
2093 60 2 0.0000000000000000e+00 -6.1246657378523103e+01 -6.5021443655401654e+01 -1.7748613221515075e+02 0 0 0
2092 60 2 0.0000000000000000e+00 -6.9228983373960247e+01 -5.8769759950273546e+01 -1.7857530027212766e+02 0 0 0
1540 44 2 0.0000000000000000e+00 -1.0102177760600384e+02 -3.9277805787285537e+01 -1.7111731542773691e+02 0 0 0
6311 181 3 0.0000000000000000e+00 -7.7269474604417866e+01 -1.6464445361973114e+02 -1.6717269510784885e+02 0 0 0
6312 181 4 0.0000000000000000e+00 -7.5045708491240617e+01 -1.6933418511146382e+02 -1.5867959939416724e+02 0 0 0
6240 179 4 0.0000000000000000e+00 -1.2244287162144941e+02 -1.4913260014431012e+02 -1.6783853479255401e+02 0 0 0
6241 179 3 0.0000000000000000e+00 -1.1660209352311455e+02 -1.4930320134196896e+02 -1.5974521367545574e+02 0 0 0
6306 181 4 0.0000000000000000e+00 -1.1177772051122628e+02 -1.5061332669983392e+02 -1.6755437027872844e+02 0 0 0
1369 40 1 0.0000000000000000e+00 -7.1109426211822893e+01 -1.5605520104087120e+02 -1.6581540399468057e+02 0 0 0
1370 40 2 0.0000000000000000e+00 -7.0234517794617162e+01 -1.4741811684300146e+02 -1.6227852997170254e+02 0 0 0
6315 181 4 0.0000000000000000e+00 -6.0226108466627991e+01 -1.4829732459997217e+02 -1.5759925385046688e+02 0 0 0
6304 181 3 0.0000000000000000e+00 -1.2004394363445626e+02 -1.3382437639767460e+02 -1.7048961242907009e+02 0 0 0
6305 181 4 0.0000000000000000e+00 -1.1357244392132156e+02 -1.4105412800883835e+02 -1.7018936198622796e+02 0 0 0
2821 81 2 0.0000000000000000e+00 -8.8291413472534558e+01 -1.4659632920936764e+02 -1.6572805894507232e+02 0 0 0
2822 81 2 0.0000000000000000e+00 -9.4233426044971495e+01 -1.4000062649587304e+02 -1.7003254773617479e+02 0 0 0
2820 81 2 0.0000000000000000e+00 -7.9275616876058962e+01 -1.4460078341743085e+02 -1.6960361115308021e+02 0 0 0
6246 179 4 0.0000000000000000e+00 -7.9300329017148925e+01 -1.3860235387938562e+02 -1.5798942680557602e+02 0 0 0
2818 81 1 0.0000000000000000e+00 -6.4902706536038963e+01 -1.3433146783939202e+02 -1.6943549117472401e+02 0 0 0
1371 40 2 0.0000000000000000e+00 -6.7205800242013396e+01 -1.3862120208125799e+02 -1.5833450755241631e+02 0 0 0
2825 81 1 0.0000000000000000e+00 -1.1540727030994724e+02 -1.2472337470444610e+02 -1.6689922973492941e+02 0 0 0
6247 179 4 0.0000000000000000e+00 -7.8257533171976846e+01 -1.3084804462209732e+02 -1.6450485064630195e+02 0 0 0
2817 81 2 0.0000000000000000e+00 -6.0863495264436757e+01 -1.2504463984013289e+02 -1.6925162263811529e+02 0 0 0
2826 81 2 0.0000000000000000e+00 -1.1933577843135399e+02 -1.1838168891360662e+02 -1.6025031691114950e+02 0 0 0
2827 81 2 0.0000000000000000e+00 -1.2249683661149774e+02 -1.0911713325507998e+02 -1.6390692228662178e+02 0 0 0
2086 60 2 0.0000000000000000e+00 -7.6158880656442236e+01 -8.7191669665989480e+01 -1.5794155131983413e+02 0 0 0
2085 60 2 0.0000000000000000e+00 -8.3267710241144783e+01 -8.0545794114774793e+01 -1.5942430316202115e+02 0 0 0
2087 60 2 0.0000000000000000e+00 -7.1832016328525484e+01 -8.6495095139998995e+01 -1.6694634242178708e+02 0 0 0
4738 136 4 0.0000000000000000e+00 -5.9723008567054180e+01 -8.3652705802322288e+01 -1.6830756568197259e+02 0 0 0
2088 60 2 0.0000000000000000e+00 -7.7480695913618518e+01 -7.8321931353538233e+01 -1.6798073239065496e+02 0 0 0
2089 60 2 0.0000000000000000e+00 -8.1257479486182604e+01 -6.8349887084057897e+01 -1.6753152291944957e+02 0 0 0
5077 146 4 0.0000000000000000e+00 -6.1535662480235800e+01 -6.6027735273924733e+01 -1.5974481719101985e+02 0 0 0
4739 136 4 0.0000000000000000e+00 -5.9663277938647219e+01 -7.3897447561329741e+01 -1.6766404006035052e+02 0 0 0
6331 181 4 0.0000000000000000e+00 -9.6590341603255851e+01 -6.1414069274671576e+01 -1.6285599443886090e+02 0 0 0
2090 60 1 0.0000000000000000e+00 -8.4365483643729277e+01 -5.9345755426104162e+01 -1.7041314795763662e+02 0 0 0
6330 181 4 0.0000000000000000e+00 -8.6535015034573547e+01 -6.0422398423973256e+01 -1.6193405060142803e+02 0 0 0
6329 181 4 0.0000000000000000e+00 -7.7917222983965246e+01 -6.1703323716181323e+01 -1.5681178900111794e+02 0 0 0
5076 146 4 0.0000000000000000e+00 -7.0102584620982967e+01 -6.2167046730848277e+01 -1.6318234256278811e+02 0 0 0
4743 136 3 0.0000000000000000e+00 -6.4737689850999629e+01 -4.4609523088982627e+01 -1.6930559689203579e+02 0 0 0
6313 181 4 0.0000000000000000e+00 -6.9791410612057490e+01 -1.6369259651383405e+02 -1.5226480700691329e+02 0 0 0
2936 84 2 0.0000000000000000e+00 -1.1327502519040948e+02 -1.5004684253391068e+02 -1.4417611187005531e+02 0 0 0
2937 84 1 0.0000000000000000e+00 -1.0979713862679267e+02 -1.5442222331425120e+02 -1.5172389377915115e+02 0 0 0
2938 84 2 0.0000000000000000e+00 -9.9899813692814945e+01 -1.5368209182273168e+02 -1.5289240350741130e+02 0 0 0
2939 84 2 0.0000000000000000e+00 -9.1102477299141199e+01 -1.5333036757080828e+02 -1.4800753504661651e+02 0 0 0
2940 84 2 0.0000000000000000e+00 -8.1166503368659619e+01 -1.5032668136501039e+02 -1.4746456406586123e+02 0 0 0
6314 181 4 0.0000000000000000e+00 -6.6374028326703638e+01 -1.5465947871032265e+02 -1.5327232491801061e+02 0 0 0
5565 159 4 0.0000000000000000e+00 -1.5401971491552692e+02 -1.4602765313156630e+02 -1.4320814466677004e+02 0 0 0
2933 84 2 0.0000000000000000e+00 -1.3175368376067649e+02 -1.3531319297002381e+02 -1.4966883903348759e+02 0 0 0
2934 84 2 0.0000000000000000e+00 -1.2176655397279355e+02 -1.3412031993313425e+02 -1.4918045635961215e+02 0 0 0
2935 84 2 0.0000000000000000e+00 -1.1816531532316823e+02 -1.4202125137324819e+02 -1.4359010381722274e+02 0 0 0
6242 179 4 0.0000000000000000e+00 -1.1201310294363672e+02 -1.4350366343140087e+02 -1.5240869593914519e+02 0 0 0
6243 179 4 0.0000000000000000e+00 -1.0282887941383964e+02 -1.4197757126991812e+02 -1.4889988681977295e+02 0 0 0
6244 179 4 0.0000000000000000e+00 -9.3922946065765885e+01 -1.3957986615747291e+02 -1.4572579701147765e+02 0 0 0
6245 179 4 0.0000000000000000e+00 -8.4940901432785708e+01 -1.3968858366364975e+02 -1.4955992452449854e+02 0 0 0
1372 40 2 0.0000000000000000e+00 -6.9011023671599190e+01 -1.3556639464496473e+02 -1.4897508802766296e+02 0 0 0
2932 84 2 0.0000000000000000e+00 -1.3710881637780196e+02 -1.2705263830652881e+02 -1.4840140996570878e+02 0 0 0
6318 181 3 0.0000000000000000e+00 -6.4046927961161131e+01 -1.2517185058909020e+02 -1.5561267946929638e+02 0 0 0
1614 47 1 0.0000000000000000e+00 -6.1484174452935349e+01 -1.2891396080197987e+02 -1.4541879041318862e+02 0 0 0
6319 181 4 0.0000000000000000e+00 -7.0312129109460756e+01 -1.1801608626817612e+02 -1.5588026867843547e+02 0 0 0
6320 181 4 0.0000000000000000e+00 -6.7539272697981943e+01 -1.0890552211066488e+02 -1.5339859255232253e+02 0 0 0
6321 181 4 0.0000000000000000e+00 -6.6624406691193812e+01 -9.9270817317112531e+01 -1.5000774296501720e+02 0 0 0
2926 84 2 0.0000000000000000e+00 -1.4496534514049918e+02 -8.4430894074457314e+01 -1.4495559993521161e+02 0 0 0
6322 181 4 0.0000000000000000e+00 -6.3787660450012950e+01 -8.9685563195313804e+01 -1.4868665417221729e+02 0 0 0
2924 84 2 0.0000000000000000e+00 -1.4522929117526320e+02 -6.7967041273362256e+01 -1.5230122371122346e+02 0 0 0
2925 84 2 0.0000000000000000e+00 -1.4155430436718169e+02 -7.5894152047969484e+01 -1.4723088475561966e+02 0 0 0
2082 60 2 0.0000000000000000e+00 -9.8866220134730398e+01 -6.5681218775475131e+01 -1.4428705514860994e+02 0 0 0
2084 60 2 0.0000000000000000e+00 -8.6912765374871967e+01 -7.2089540088527286e+01 -1.5508874005345464e+02 0 0 0
5543 159 4 0.0000000000000000e+00 -7.8433496253829844e+01 -7.1138917757305478e+01 -1.4410076731272102e+02 0 0 0
6324 181 4 0.0000000000000000e+00 -6.6243872797613747e+01 -7.7092487400455099e+01 -1.4409928359833089e+02 0 0 0
2922 84 2 0.0000000000000000e+00 -1.5895319616571396e+02 -5.4943478630778138e+01 -1.5370655958703347e+02 0 0 0
2923 84 1 0.0000000000000000e+00 -1.5258438189449927e+02 -6.1376887927475551e+01 -1.4909753973835447e+02 0 0 0
6185 177 3 0.0000000000000000e+00 -1.4709178188029384e+02 -5.2856263115960459e+01 -1.4484817185287275e+02 0 0 0
2080 60 2 0.0000000000000000e+00 -1.1027432594007723e+02 -5.2264341411376222e+01 -1.4523331463891370e+02 0 0 0
2083 60 1 0.0000000000000000e+00 -9.0425808734061420e+01 -6.4442894245039994e+01 -1.4970830006630402e+02 0 0 0
6542 187 3 0.0000000000000000e+00 -9.2985740578236843e+01 -5.4237807927546854e+01 -1.4755271541262044e+02 0 0 0
5542 159 4 0.0000000000000000e+00 -7.8274630214039306e+01 -6.0738193019499910e+01 -1.4462051325469022e+02 0 0 0
6328 181 4 0.0000000000000000e+00 -6.9267344456102165e+01 -5.6572418584832683e+01 -1.5457178604075310e+02 0 0 0
6326 181 4 0.0000000000000000e+00 -6.5184425409426581e+01 -6.2166134589356851e+01 -1.4603244447259385e+02 0 0 0
6327 181 4 0.0000000000000000e+00 -5.9505147685936485e+01 -5.7704786042588673e+01 -1.5313673197662646e+02 0 0 0
2920 84 2 0.0000000000000000e+00 -1.7017875798214405e+02 -3.9362031890183466e+01 -1.5221308854711359e+02 0 0 0
2921 84 2 0.0000000000000000e+00 -1.6606918693963652e+02 -4.8101185074208352e+01 -1.5195832985067668e+02 0 0 0
6183 177 4 0.0000000000000000e+00 -1.6125830550142058e+02 -3.9679502553214000e+01 -1.4526179326807986e+02 0 0 0
6184 177 4 0.0000000000000000e+00 -1.5468940454133303e+02 -4.6998685405845741e+01 -1.4701622271555206e+02 0 0 0
1533 44 2 0.0000000000000000e+00 -1.4842713405304900e+02 -3.9127876306461523e+01 -1.4313484163549671e+02 0 0 0
1534 44 2 0.0000000000000000e+00 -1.4648171681300482e+02 -4.0548687544576346e+01 -1.5353673651903154e+02 0 0 0
6535 187 3 0.0000000000000000e+00 -1.2477362436995179e+02 -4.0795002039560252e+01 -1.5327608315386684e+02 0 0 0
2079 60 2 0.0000000000000000e+00 -1.0632601467298549e+02 -4.3366543206863533e+01 -1.4665894939665026e+02 0 0 0
5541 159 3 0.0000000000000000e+00 -8.2983915073935123e+01 -5.1757840354106541e+01 -1.4340751677994007e+02 0 0 0
5564 159 4 0.0000000000000000e+00 -1.5310488027538591e+02 -1.4152089544487251e+02 -1.3487216994790779e+02 0 0 0
1612 47 2 0.0000000000000000e+00 -6.8675123237329245e+01 -1.3440480398155725e+02 -1.3119523893199531e+02 0 0 0
5562 159 3 0.0000000000000000e+00 -1.5389820103107004e+02 -1.2242033560264409e+02 -1.3743206636643629e+02 0 0 0
5563 159 4 0.0000000000000000e+00 -1.5393224749531313e+02 -1.3151596668054569e+02 -1.3290214576781500e+02 0 0 0
2931 84 2 0.0000000000000000e+00 -1.4167796463405949e+02 -1.2172137848000303e+02 -1.4153999645496228e+02 0 0 0
2521 73 2 0.0000000000000000e+00 -1.3156896866635938e+02 -1.2472563795940108e+02 -1.3160689615607080e+02 0 0 0
1373 40 2 0.0000000000000000e+00 -7.5654967724902818e+01 -1.3163535861144678e+02 -1.4245333538875474e+02 0 0 0
1374 40 2 0.0000000000000000e+00 -8.0666327861826332e+01 -1.3016191738455436e+02 -1.3550294274541608e+02 0 0 0
1375 40 2 0.0000000000000000e+00 -8.4515149790348389e+01 -1.2194113209565172e+02 -1.3103451987126664e+02 0 0 0
1613 47 2 0.0000000000000000e+00 -6.8107608782794671e+01 -1.2656815316534764e+02 -1.3761764018096940e+02 0 0 0
5561 159 4 0.0000000000000000e+00 -1.5830146393089365e+02 -1.1359833500098496e+02 -1.3402176439594135e+02 0 0 0
2930 84 1 0.0000000000000000e+00 -1.4603914399622576e+02 -1.1542772168696395e+02 -1.3600440360809569e+02 0 0 0
2929 84 2 0.0000000000000000e+00 -1.4334442293261907e+02 -1.0666397844637481e+02 -1.3435168982592620e+02 0 0 0
2522 73 2 0.0000000000000000e+00 -1.2933746062977056e+02 -1.1508079697941542e+02 -1.3021922179135933e+02 0 0 0
5560 159 4 0.0000000000000000e+00 -1.5495775014087283e+02 -1.0487038985223658e+02 -1.2978525380561905e+02 0 0 0
2523 73 2 0.0000000000000000e+00 -1.2978120177211355e+02 -1.0495859363622236e+02 -1.3030741768037424e+02 0 0 0
2928 84 2 0.0000000000000000e+00 -1.3932243682379277e+02 -9.8357942012658668e+01 -1.3840387432739777e+02 0 0 0
5546 159 4 0.0000000000000000e+00 -8.1538106881174713e+01 -9.4824979198903122e+01 -1.2960356120528149e+02 0 0 0
1625 47 2 0.0000000000000000e+00 -6.0312220036572391e+01 -1.0604896381757335e+02 -1.3218853363744475e+02 0 0 0
1626 47 2 0.0000000000000000e+00 -6.2034386034472824e+01 -9.6491388640611333e+01 -1.3281284802668418e+02 0 0 0
2927 84 2 0.0000000000000000e+00 -1.4570014355020976e+02 -9.1177928862044951e+01 -1.3755890470435003e+02 0 0 0
2525 73 2 0.0000000000000000e+00 -1.3513073767239345e+02 -8.5720508884981086e+01 -1.2982437150034011e+02 0 0 0
5545 159 4 0.0000000000000000e+00 -7.8493995463150739e+01 -8.6473348717434277e+01 -1.3353784679363804e+02 0 0 0
5544 159 4 0.0000000000000000e+00 -7.6007002683267899e+01 -8.0896362652455323e+01 -1.4150465662804746e+02 0 0 0
1627 47 2 0.0000000000000000e+00 -6.1964133584007811e+01 -8.6357680036966642e+01 -1.3463721802997156e+02 0 0 0
2526 73 2 0.0000000000000000e+00 -1.3976548021044158e+02 -7.6953085279710848e+01 -1.3083397196462747e+02 0 0 0
6544 187 4 0.0000000000000000e+00 -9.0312986243080502e+01 -6.8756625627815026e+01 -1.3438634152789618e+02 0 0 0
1628 47 1 0.0000000000000000e+00 -6.1280543980938859e+01 -7.6505788375927679e+01 -1.3527027252353531e+02 0 0 0
6325 181 3 0.0000000000000000e+00 -6.9310896248452963e+01 -6.9073741828633658e+01 -1.3996708124230815e+02 0 0 0
3725 107 4 0.0000000000000000e+00 -1.7068174338943965e+02 -5.9672106969225425e+01 -1.2961546506509197e+02 0 0 0
3724 107 4 0.0000000000000000e+00 -1.6322056545873082e+02 -5.5272255323737895e+01 -1.3421922062630802e+02 0 0 0
6186 177 4 0.0000000000000000e+00 -1.4346526975713090e+02 -5.6897508912595683e+01 -1.3647332523847547e+02 0 0 0
6187 177 4 0.0000000000000000e+00 -1.4234918013061156e+02 -6.4818266445946406e+01 -1.3089426447264265e+02 0 0 0
2081 60 2 0.0000000000000000e+00 -1.0773064099884051e+02 -6.1960840778570713e+01 -1.4226675485630875e+02 0 0 0
6543 187 4 0.0000000000000000e+00 -8.9884525013938998e+01 -5.9694086317429232e+01 -1.3920975809682528e+02 0 0 0
6541 187 4 0.0000000000000000e+00 -9.9476411484152919e+01 -5.2146712080689085e+01 -1.4047239893324394e+02 0 0 0
3723 107 4 0.0000000000000000e+00 -1.5880131416493299e+02 -4.6550030041497706e+01 -1.3730428355795556e+02 0 0 0
6538 187 4 0.0000000000000000e+00 -1.2092501745147639e+02 -3.8864222581232660e+01 -1.3398490152625422e+02 0 0 0
6539 187 4 0.0000000000000000e+00 -1.1171931048315471e+02 -4.1783451738198941e+01 -1.3090201741573134e+02 0 0 0
6540 187 4 0.0000000000000000e+00 -1.0439650403767787e+02 -4.8212294086484142e+01 -1.3251945882374054e+02 0 0 0
5540 159 4 0.0000000000000000e+00 -8.7713574665646561e+01 -4.7256647313406781e+01 -1.3568256616305038e+02 0 0 0
2078 60 2 0.0000000000000000e+00 -9.8828487650726146e+01 -3.9299198899921123e+01 -1.4191652122888425e+02 0 0 0
2076 60 1 0.0000000000000000e+00 -7.9437404837472783e+01 -4.0787473410255629e+01 -1.4255752263100615e+02 0 0 0
2074 60 2 0.0000000000000000e+00 -6.0265238936997541e+01 -4.4521459511019266e+01 -1.3868580901672831e+02 0 0 0
2075 60 2 0.0000000000000000e+00 -7.0254095351931042e+01 -4.2082829309073858e+01 -1.4026989981818318e+02 0 0 0
1611 47 2 0.0000000000000000e+00 -6.9710150482605357e+01 -1.4340062379364409e+02 -1.2687173127853092e+02 0 0 0
5552 159 4 0.0000000000000000e+00 -1.0316319881359438e+02 -1.2163841715862993e+02 -1.2303108631534731e+02 0 0 0
5554 159 4 0.0000000000000000e+00 -1.1865498080498688e+02 -1.0824764807932446e+02 -1.2463235315149960e+02 0 0 0
5553 159 4 0.0000000000000000e+00 -1.1093305052876951e+02 -1.1519196672613104e+02 -1.2437500465854676e+02 0 0 0
1376 40 1 0.0000000000000000e+00 -8.5624114858345592e+01 -1.1276967002312750e+02 -1.2617659366357312e+02 0 0 0
5548 159 3 0.0000000000000000e+00 -7.7577205179445116e+01 -1.0891803850254072e+02 -1.2043674306875683e+02 0 0 0
5559 159 4 0.0000000000000000e+00 -1.4851056864784013e+02 -9.7204390080641673e+01 -1.2876995943754849e+02 0 0 0
2524 73 1 0.0000000000000000e+00 -1.3097565341398575e+02 -9.4980625731702006e+01 -1.2895050625718963e+02 0 0 0
5555 159 3 0.0000000000000000e+00 -1.2392644707700565e+02 -1.0069703938764323e+02 -1.2149456912735025e+02 0 0 0
1380 40 2 0.0000000000000000e+00 -1.0829678461697684e+02 -9.6032952860707297e+01 -1.1841228151552576e+02 0 0 0
1379 40 2 0.0000000000000000e+00 -1.0493853324931516e+02 -9.3059209895356304e+01 -1.2745576192066133e+02 0 0 0
1378 40 2 0.0000000000000000e+00 -9.5311649360998430e+01 -9.6175589017221427e+01 -1.2698643113498034e+02 0 0 0
1377 40 2 0.0000000000000000e+00 -8.9304734470355470e+01 -1.0360371593009670e+02 -1.2405801976365029e+02 0 0 0
5547 159 4 0.0000000000000000e+00 -7.7785916566257981e+01 -1.0370977085207728e+02 -1.2852463838427349e+02 0 0 0
5558 159 4 0.0000000000000000e+00 -1.4574419484327524e+02 -9.1477737967589505e+01 -1.2147185161558140e+02 0 0 0
939 27 2 0.0000000000000000e+00 -1.1789377350561861e+02 -7.9795151191849044e+01 -1.1665223593401126e+02 0 0 0
940 27 2 0.0000000000000000e+00 -1.0877707383224461e+02 -8.0678528858369461e+01 -1.1870878625994861e+02 0 0 0
945 27 2 0.0000000000000000e+00 -7.8358486587146231e+01 -9.0258757678046834e+01 -1.2036414464186498e+02 0 0 0
3727 107 4 0.0000000000000000e+00 -1.8032868568268754e+02 -7.1400950850504955e+01 -1.2117902352268541e+02 0 0 0
3726 107 4 0.0000000000000000e+00 -1.7220609552572466e+02 -6.8643328398286869e+01 -1.2525084430778978e+02 0 0 0
2529 73 2 0.0000000000000000e+00 -1.6351568223543521e+02 -6.8416998617777494e+01 -1.1599083297339341e+02 0 0 0
2528 73 2 0.0000000000000000e+00 -1.5432748446370508e+02 -7.2005825637033325e+01 -1.1885283435702598e+02 0 0 0
2527 73 2 0.0000000000000000e+00 -1.4832319000217231e+02 -7.3818720482951690e+01 -1.2595042877599722e+02 0 0 0
6188 177 4 0.0000000000000000e+00 -1.4086281468036756e+02 -6.7973164891678110e+01 -1.2126022569705657e+02 0 0 0
4831 139 4 0.0000000000000000e+00 -1.0208844855475922e+02 -6.7883034476487907e+01 -1.1702956762577584e+02 0 0 0
6545 187 4 0.0000000000000000e+00 -9.0326182494084833e+01 -7.6887099485595314e+01 -1.2857691057336373e+02 0 0 0
1629 47 2 0.0000000000000000e+00 -6.2931886772216849e+01 -6.8583018944932789e+01 -1.2927628778563886e+02 0 0 0
3016 87 2 0.0000000000000000e+00 -6.8542372614771040e+01 -7.7348504619435886e+01 -1.2057583451880640e+02 0 0 0
3017 87 2 0.0000000000000000e+00 -5.9479177438447323e+01 -7.5915107105395606e+01 -1.1664343861188442e+02 0 0 0
6526 187 4 0.0000000000000000e+00 -8.6300372917293771e+01 -5.3719391731899876e+01 -1.2184496144400033e+02 0 0 0
1630 47 2 0.0000000000000000e+00 -6.0286028480938640e+01 -6.3662796352549570e+01 -1.2054392218821386e+02 0 0 0
5529 158 4 0.0000000000000000e+00 -1.7051405418775695e+02 -4.9198287724357634e+01 -1.1865993095202978e+02 0 0 0
5530 158 4 0.0000000000000000e+00 -1.8007054304260444e+02 -5.2037210104157140e+01 -1.1570126294014950e+02 0 0 0
5528 158 4 0.0000000000000000e+00 -1.6082625767008747e+02 -4.9585401724662333e+01 -1.2109715877001361e+02 0 0 0
1523 44 1 0.0000000000000000e+00 -1.4582903382592960e+02 -3.9316577104808999e+01 -1.2322426869659046e+02 0 0 0
5539 159 4 0.0000000000000000e+00 -9.1085062160729635e+01 -4.1985848276781120e+01 -1.2764396024473693e+02 0 0 0
6525 187 4 0.0000000000000000e+00 -8.9955159062024052e+01 -4.5870633794103490e+01 -1.1693347666538632e+02 0 0 0
6527 187 4 0.0000000000000000e+00 -7.9305057832486796e+01 -4.7272313919677799e+01 -1.2143011535919213e+02 0 0 0
6507 186 3 0.0000000000000000e+00 -9.3706515296169741e+01 -1.2175794467579007e+02 -1.0425760947244605e+02 0 0 0
6509 186 4 0.0000000000000000e+00 -7.4259494085817323e+01 -1.2368368102247899e+02 -1.0467971561979631e+02 0 0 0
6508 186 4 0.0000000000000000e+00 -8.4049487141276458e+01 -1.2218690971870851e+02 -1.0222757458740215e+02 0 0 0
3058 88 2 0.0000000000000000e+00 -1.1176966363674327e+02 -1.0994988431254951e+02 -1.0594764113527749e+02 0 0 0
3057 88 2 0.0000000000000000e+00 -1.0160338659836616e+02 -1.0835648052584403e+02 -1.0474896358355814e+02 0 0 0
6506 186 4 0.0000000000000000e+00 -1.0302547161489434e+02 -1.1936773419323492e+02 -1.0596861021324607e+02 0 0 0
5551 159 4 0.0000000000000000e+00 -9.8081582484074929e+01 -1.1940012561251136e+02 -1.1486495584340811e+02 0 0 0
5550 159 4 0.0000000000000000e+00 -8.9380257390446147e+01 -1.1525676282878382e+02 -1.1147789670968781e+02 0 0 0
5549 159 4 0.0000000000000000e+00 -7.9578551513807497e+01 -1.1468852549392800e+02 -1.1245054768287494e+02 0 0 0
5556 159 4 0.0000000000000000e+00 -1.3060462537386695e+02 -9.8117410866058677e+01 -1.1430068231621802e+02 0 0 0
1383 40 1 0.0000000000000000e+00 -1.2976315923241540e+02 -9.4814611597553466e+01 -1.0247466187889789e+02 0 0 0
1382 40 2 0.0000000000000000e+00 -1.2325712860404987e+02 -1.0129338046301287e+02 -1.0718906660480951e+02 0 0 0
1381 40 2 0.0000000000000000e+00 -1.1549144562558359e+02 -9.8820583439285656e+01 -1.1230629747618900e+02 0 0 0
943 27 2 0.0000000000000000e+00 -9.0288388511784206e+01 -9.5967395114106921e+01 -1.0618341620381898e+02 0 0 0
942 27 1 0.0000000000000000e+00 -9.9859537471146453e+01 -9.4256028482544281e+01 -1.0786040444633002e+02 0 0 0
944 27 2 0.0000000000000000e+00 -8.1708153751701730e+01 -9.4738399692103741e+01 -1.1258439324463131e+02 0 0 0
5557 159 4 0.0000000000000000e+00 -1.3865579654674738e+02 -9.2390988610066728e+01 -1.1432546557638683e+02 0 0 0
938 27 2 0.0000000000000000e+00 -1.2647705401517398e+02 -7.9579597088516991e+01 -1.1255569836243392e+02 0 0 0
941 27 2 0.0000000000000000e+00 -1.0491175010807451e+02 -8.6870682603094295e+01 -1.1186028770920773e+02 0 0 0
6269 180 3 0.0000000000000000e+00 -9.5619701842882094e+01 -8.4136884000259997e+01 -1.1123617906693804e+02 0 0 0
6268 180 4 0.0000000000000000e+00 -8.5491844783737477e+01 -8.3532131571197340e+01 -1.1244884285191824e+02 0 0 0
3729 107 4 0.0000000000000000e+00 -1.8930090387570945e+02 -7.1736540767667506e+01 -1.0423043439686572e+02 0 0 0
3728 107 3 0.0000000000000000e+00 -1.8603849636498731e+02 -7.0430053137292745e+01 -1.1333360157910231e+02 0 0 0
2530 73 2 0.0000000000000000e+00 -1.7090507533439580e+02 -6.9800215263243317e+01 -1.1032768173218720e+02 0 0 0
2531 73 1 0.0000000000000000e+00 -1.7939683051186626e+02 -6.8637624390417940e+01 -1.0503272545380899e+02 0 0 0
6189 177 4 0.0000000000000000e+00 -1.4121997951648126e+02 -6.8945383458220903e+01 -1.1193899771341803e+02 0 0 0
937 27 2 0.0000000000000000e+00 -1.2775853048337068e+02 -7.1031753555480989e+01 -1.0820020718475973e+02 0 0 0
6270 180 4 0.0000000000000000e+00 -1.0221648738532967e+02 -7.6390396305186158e+01 -1.1154526556130840e+02 0 0 0
6271 180 4 0.0000000000000000e+00 -1.0101001891721332e+02 -7.2207259190635853e+01 -1.0216118481386540e+02 0 0 0
6267 180 4 0.0000000000000000e+00 -8.7891532273517186e+01 -7.4159168347680961e+01 -1.0814131292719716e+02 0 0 0
3014 87 1 0.0000000000000000e+00 -7.4795062058123136e+01 -7.4412464229472064e+01 -1.0271334102838892e+02 0 0 0
3015 87 2 0.0000000000000000e+00 -7.4820659310859583e+01 -7.7160228876351354e+01 -1.1248802460303155e+02 0 0 0
1514 44 2 0.0000000000000000e+00 -1.6880521264499876e+02 -5.4051070198046851e+01 -1.0959948933605816e+02 0 0 0
1513 44 2 0.0000000000000000e+00 -1.6054015466377609e+02 -5.9468380185178148e+01 -1.0791174820185746e+02 0 0 0
4832 139 4 0.0000000000000000e+00 -1.0043958303466015e+02 -6.0143233369689931e+01 -1.1028170767240749e+02 0 0 0
1631 47 2 0.0000000000000000e+00 -5.9520931974439293e+01 -5.6512340233694133e+01 -1.1310191591220438e+02 0 0 0
1515 44 2 0.0000000000000000e+00 -1.7211968208985968e+02 -4.5302974363531206e+01 -1.0615036450342738e+02 0 0 0
5527 158 3 0.0000000000000000e+00 -1.6129648734593036e+02 -4.2237807584429078e+01 -1.1430522812755743e+02 0 0 0
5526 158 4 0.0000000000000000e+00 -1.5785667959625385e+02 -4.3495075708891576e+01 -1.0473266048165434e+02 0 0 0
1524 44 2 0.0000000000000000e+00 -1.4193616888890588e+02 -4.0435963888821966e+01 -1.1442411299110839e+02 0 0 0
1525 44 2 0.0000000000000000e+00 -1.4107285933888079e+02 -4.3888119158859389e+01 -1.0478243353592988e+02 0 0 0
1527 44 2 0.0000000000000000e+00 -1.2593128029331569e+02 -4.5532390996992952e+01 -1.0571340383673891e+02 0 0 0
1528 44 2 0.0000000000000000e+00 -1.2251754192195745e+02 -3.9170627727187281e+01 -1.1227960777182922e+02 0 0 0
4833 139 4 0.0000000000000000e+00 -9.9014887526400685e+01 -5.0745940372659994e+01 -1.0778547606478301e+02 0 0 0
6524 187 4 0.0000000000000000e+00 -9.1449723649085570e+01 -3.9559205309934363e+01 -1.1000339182683882e+02 0 0 0
1633 47 2 0.0000000000000000e+00 -7.0467064613147798e+01 -4.1206623804018236e+01 -1.0947184101873944e+02 0 0 0
1632 47 2 0.0000000000000000e+00 -6.6819902264610064e+01 -5.0736127623593937e+01 -1.0917064577987762e+02 0 0 0
2555 73 2 0.0000000000000000e+00 -1.7031852430199217e+02 -1.4480866187636420e+02 -1.0028027920598642e+02 0 0 0
2554 73 2 0.0000000000000000e+00 -1.6702447102623930e+02 -1.3634445624500106e+02 -9.8081918043644407e+01 0 0 0
2553 73 2 0.0000000000000000e+00 -1.5699827129383578e+02 -1.3694474664418496e+02 -9.8352375030533167e+01 0 0 0
2552 73 1 0.0000000000000000e+00 -1.5158123027221319e+02 -1.4090214637259029e+02 -9.1680390320881017e+01 0 0 0