LAMMPS data file via write_data, version 5 Jun 2019, timestep = 330000000

7000 atoms
4 atom types
7260 bonds
3 bond types
6600 angles
2 angle types

-5.0000000000000000e+02 5.0000000000000000e+02 xlo xhi
-5.0000000000000000e+02 5.0000000000000000e+02 ylo yhi
-5.0000000000000000e+02 5.0000000000000000e+02 zlo zhi

Masses

1 1000
2 1000
3 1000
4 1000

Pair Coeffs # lj/cut

1 0.178 10
2 0.178 10
3 0.178 10
4 0.178 10

Angle Coeffs # cosine

1 2
2 2

Atoms # full

5531 159 4 0.0000000000000000e+00 -1.2520732026268156e+02 -1.8195861150020860e+02 -2.2960872888504130e+02 0 0 0
5532 159 4 0.0000000000000000e+00 -1.1896917392003273e+02 -1.7458751163345744e+02 -2.2867950712818001e+02 0 0 0
5533 159 4 0.0000000000000000e+00 -1.1271024035272022e+02 -1.6670149390895858e+02 -2.2895664348094579e+02 0 0 0
5534 159 3 0.0000000000000000e+00 -1.0469866259236277e+02 -1.6493285322918203e+02 -2.2364765968176599e+02 0 0 0
5535 159 4 0.0000000000000000e+00 -9.9173845963557881e+01 -1.6403067678815424e+02 -2.1577327809073213e+02 0 0 0
5915 169 4 0.0000000000000000e+00 -1.5858255571074628e+02 1.4572954670000412e+01 -2.1672231498487437e+02 0 0 0
5536 159 4 0.0000000000000000e+00 -9.6277158357085099e+01 -1.5597153082315785e+02 -2.1019671154699409e+02 0 0 0
5537 159 4 0.0000000000000000e+00 -9.8146668720829084e+01 -1.4673175285152934e+02 -2.0522073765438253e+02 0 0 0
5538 159 4 0.0000000000000000e+00 -1.0504451487757613e+02 -1.3979294787117416e+02 -2.0654058942085837e+02 0 0 0
1366 40 2 0.0000000000000000e+00 -1.4828796961862724e+02 -1.3228618293167528e+02 -2.0277272755271423e+02 0 0 0
2927 84 2 0.0000000000000000e+00 -1.5450344281505687e+02 -1.7965815167692693e+01 -2.0053638570715285e+02 0 0 0
5907 169 4 0.0000000000000000e+00 -1.0555715014841968e+02 -5.7865006616516732e+00 -2.0556023851232496e+02 0 0 0
5914 169 4 0.0000000000000000e+00 -1.5312557911298498e+02 1.3550411613437898e+01 -2.0798838337242336e+02 0 0 0
5909 169 4 0.0000000000000000e+00 -1.1471228623691741e+02 9.4766988967001264e+00 -2.0389127539828468e+02 0 0 0
5908 169 4 0.0000000000000000e+00 -1.1059819354629045e+02 2.1567017965489432e+00 -2.0823925475556601e+02 0 0 0
5913 169 4 0.0000000000000000e+00 -1.4865682905224912e+02 1.8313474121435448e+01 -2.0053886889388625e+02 0 0 0
5912 169 3 0.0000000000000000e+00 -1.3903595828964254e+02 1.9218885636789494e+01 -2.0370471170648329e+02 0 0 0
5911 169 4 0.0000000000000000e+00 -1.2945854036243404e+02 1.8915182021965176e+01 -2.0620778394854142e+02 0 0 0
5910 169 4 0.0000000000000000e+00 -1.1997904363786265e+02 1.7490033807798675e+01 -2.0627239474765673e+02 0 0 0
1367 40 2 0.0000000000000000e+00 -1.5141966905837984e+02 -1.2622570567737236e+02 -1.9524342047184345e+02 0 0 0
5539 159 4 0.0000000000000000e+00 -1.0541411430502085e+02 -1.3461628457720244e+02 -1.9813118049090787e+02 0 0 0
5540 159 4 0.0000000000000000e+00 -1.0349555640490186e+02 -1.2834334141415417e+02 -1.9052061605068420e+02 0 0 0
1368 40 2 0.0000000000000000e+00 -1.4653488947436847e+02 -1.1875470219158865e+02 -1.9014102718421029e+02 0 0 0
1370 40 2 0.0000000000000000e+00 -1.3137888054249970e+02 -1.1228917791744337e+02 -1.8520427028147864e+02 0 0 0
2076 60 1 0.0000000000000000e+00 -1.0022242549919220e+02 -1.1846383165333756e+02 -1.8869385554661531e+02 0 0 0
2075 60 2 0.0000000000000000e+00 -9.1932262585063455e+01 -1.1536566281821344e+02 -1.9387957706667373e+02 0 0 0
2074 60 2 0.0000000000000000e+00 -8.6650670331851785e+01 -1.0979378092201092e+02 -1.8714201126303507e+02 0 0 0
1530 44 1 0.0000000000000000e+00 -8.8769685594437277e+01 -5.5560021866702677e+01 -1.9044049581429744e+02 0 0 0
1645 47 2 0.0000000000000000e+00 -5.7873791514192462e+01 -5.4249213498671416e+01 -1.9410686217199827e+02 0 0 0
6535 187 3 0.0000000000000000e+00 -9.9294755224473306e+01 -5.1226153299447525e+01 -1.9267851380522509e+02 0 0 0
6534 187 4 0.0000000000000000e+00 -9.4066112972967744e+01 -4.3033284071990352e+01 -1.9274673028323994e+02 0 0 0
1531 44 2 0.0000000000000000e+00 -8.1248394224527530e+01 -4.9353767855037582e+01 -1.9105737934544186e+02 0 0 0
1532 44 2 0.0000000000000000e+00 -7.5724127221724189e+01 -4.1504415372574094e+01 -1.9039539196856347e+02 0 0 0
1641 47 2 0.0000000000000000e+00 -2.8054920242006201e+01 -4.6641464444217007e+01 -1.9196808368715531e+02 0 0 0
1642 47 1 0.0000000000000000e+00 -3.5500662314711064e+01 -5.0237865666843639e+01 -1.8690562029586235e+02 0 0 0
6533 187 4 0.0000000000000000e+00 -8.9529831930738979e+01 -3.5748256885239286e+01 -1.8796641707778997e+02 0 0 0
2928 84 2 0.0000000000000000e+00 -1.4750978726055695e+02 -1.4748689457107938e+01 -1.9458880482819706e+02 0 0 0
2929 84 2 0.0000000000000000e+00 -1.4189791960259876e+02 -1.6415516197687122e+01 -1.8635081617214706e+02 0 0 0
2914 84 2 0.0000000000000000e+00 -1.1522391764747189e+02 -2.0198411531962666e+01 -1.8524471797778659e+02 0 0 0
2926 84 2 0.0000000000000000e+00 -1.6201284907295155e+02 -1.2230239420116812e+01 -1.9762004660532637e+02 0 0 0
2925 84 2 0.0000000000000000e+00 -1.5782906242684552e+02 -3.6196819523776242e+00 -1.9489199126710011e+02 0 0 0
2924 84 2 0.0000000000000000e+00 -1.5685299508039321e+02 -1.8964269333983004e+00 -1.8530677093493537e+02 0 0 0
5881 169 4 0.0000000000000000e+00 -1.2586413684048834e+02 -2.3429846634919882e-01 -1.9323439678344403e+02 0 0 0
5906 169 4 0.0000000000000000e+00 -1.0088964105756533e+02 -1.0899614384762710e+01 -1.9832359296095063e+02 0 0 0
2916 84 1 0.0000000000000000e+00 -1.0317152933917700e+02 -8.1018083875565168e+00 -1.8640077668105042e+02 0 0 0
2917 84 2 0.0000000000000000e+00 -1.0681262561499491e+02 -1.1613527772761485e+00 -1.9289604144453179e+02 0 0 0
5905 169 3 0.0000000000000000e+00 -9.4269684114629044e+01 -1.0151686312467808e+01 -1.9160342626707197e+02 0 0 0
3011 87 2 0.0000000000000000e+00 -6.6639869376134882e+01 -1.2019706340773608e+01 -1.8654696863373263e+02 0 0 0
5882 169 4 0.0000000000000000e+00 -1.2834074323462087e+02 7.8589986171561632e+00 -1.9854369736124465e+02 0 0 0
2918 84 2 0.0000000000000000e+00 -1.1574717973398840e+02 3.1568068157365778e+00 -1.8960625712926287e+02 0 0 0
5883 169 4 0.0000000000000000e+00 -1.1975160026604077e+02 1.2354828418648983e+01 -1.9514641267573799e+02 0 0 0
5884 169 3 0.0000000000000000e+00 -1.1096794228264004e+02 1.2531913358074627e+01 -1.8984309237746629e+02 0 0 0
2496 72 1 0.0000000000000000e+00 -1.3959373899837772e+02 2.3827531377527503e+01 -1.9365786635332785e+02 0 0 0
2495 72 2 0.0000000000000000e+00 -1.4811380403399261e+02 2.7526054286803959e+01 -1.9048810815089141e+02 0 0 0
5541 159 3 0.0000000000000000e+00 -1.0922135700094137e+02 -1.2370465069182335e+02 -1.8407561603074672e+02 0 0 0
5542 159 4 0.0000000000000000e+00 -1.1277068427355722e+02 -1.2138882712425111e+02 -1.7559760610864944e+02 0 0 0
1369 40 1 0.0000000000000000e+00 -1.4038293756743485e+02 -1.1509328178379970e+02 -1.8365231134861097e+02 0 0 0
2077 60 2 0.0000000000000000e+00 -9.9294943081126220e+01 -1.1744566190166275e+02 -1.7923839935917402e+02 0 0 0
2078 60 2 0.0000000000000000e+00 -9.2365076305176729e+01 -1.1441459847977548e+02 -1.7268568142454490e+02 0 0 0
2079 60 2 0.0000000000000000e+00 -8.3834982271902817e+01 -1.1342894501150427e+02 -1.7738538331297281e+02 0 0 0
1371 40 2 0.0000000000000000e+00 -1.2297740456129577e+02 -1.0706694457301543e+02 -1.8463147796983074e+02 0 0 0
1372 40 2 0.0000000000000000e+00 -1.1476929859532588e+02 -1.0252070582683432e+02 -1.8285670767966849e+02 0 0 0
1373 40 2 0.0000000000000000e+00 -1.0721928499780745e+02 -9.6671247074892690e+01 -1.7928732350389012e+02 0 0 0
2073 60 2 0.0000000000000000e+00 -8.1352083187738401e+01 -1.0201080257408825e+02 -1.8364375929811283e+02 0 0 0
2072 60 2 0.0000000000000000e+00 -7.4115862512768800e+01 -9.5702314890895465e+01 -1.8130055950685485e+02 0 0 0
2090 60 1 0.0000000000000000e+00 -3.0963849030808387e+01 -9.4966635086432504e+01 -1.7444051906986184e+02 0 0 0
1375 40 2 0.0000000000000000e+00 -1.1392793297410739e+02 -8.0794659545116602e+01 -1.8306396698612434e+02 0 0 0
1374 40 2 0.0000000000000000e+00 -1.0574324119659343e+02 -8.7333454551558475e+01 -1.8365702292978611e+02 0 0 0
2071 60 2 0.0000000000000000e+00 -7.3605996642504607e+01 -8.8664094154401923e+01 -1.7473380492804259e+02 0 0 0
1376 40 1 0.0000000000000000e+00 -1.1737386456747124e+02 -7.2294166179580415e+01 -1.7847079775526862e+02 0 0 0
1526 44 2 0.0000000000000000e+00 -1.1036035962320121e+02 -7.6153128455975065e+01 -1.7247106057048114e+02 0 0 0
1527 44 2 0.0000000000000000e+00 -1.0686740342754509e+02 -6.9789242304697709e+01 -1.7945560785791167e+02 0 0 0
4745 136 4 0.0000000000000000e+00 -4.8176944425225891e+01 -6.8220330219028881e+01 -1.7158406370439286e+02 0 0 0
1377 40 2 0.0000000000000000e+00 -1.1877088278316164e+02 -6.2854148971497338e+01 -1.7638855074247832e+02 0 0 0
1528 44 2 0.0000000000000000e+00 -1.0616991052271086e+02 -6.0680653661755947e+01 -1.8335082467802940e+02 0 0 0
1529 44 2 0.0000000000000000e+00 -9.6293619951235769e+01 -5.6148520455880664e+01 -1.8458698945488624e+02 0 0 0
6539 187 4 0.0000000000000000e+00 -1.2511806790865334e+02 -4.1427389667591989e+01 -1.7237204585216264e+02 0 0 0
6538 187 4 0.0000000000000000e+00 -1.1684371807935477e+02 -4.6500811091989725e+01 -1.7223896447432926e+02 0 0 0
6536 187 4 0.0000000000000000e+00 -1.0496744824247838e+02 -4.9454278415577306e+01 -1.8457446663100671e+02 0 0 0
6537 187 4 0.0000000000000000e+00 -1.0796835281946922e+02 -4.5024339603205753e+01 -1.7590200195997588e+02 0 0 0
1644 47 2 0.0000000000000000e+00 -5.4754825703760460e+01 -5.3200387278712178e+01 -1.8497822104257588e+02 0 0 0
4747 136 4 0.0000000000000000e+00 -5.8478139993855308e+01 -5.0570682144067504e+01 -1.7330437410972311e+02 0 0 0
1643 47 2 0.0000000000000000e+00 -4.5058061857857027e+01 -5.2762085735431242e+01 -1.8399041509160185e+02 0 0 0
4748 136 4 0.0000000000000000e+00 -5.1420230882109038e+01 -4.3250347561542213e+01 -1.7214576816046170e+02 0 0 0
5094 146 4 0.0000000000000000e+00 -2.9723525013957342e+01 -4.3611380378465235e+01 -1.7693406309561004e+02 0 0 0
6541 187 4 0.0000000000000000e+00 -1.3946390315300283e+02 -3.0955315806219943e+01 -1.8157624099243938e+02 0 0 0
6540 187 4 0.0000000000000000e+00 -1.3295436938004752e+02 -3.6694633279648357e+01 -1.7595920191372602e+02 0 0 0
6532 187 4 0.0000000000000000e+00 -8.7623589164273795e+01 -3.4242610242783719e+01 -1.7819602025475385e+02 0 0 0
1533 44 2 0.0000000000000000e+00 -6.9521904432985991e+01 -3.6447284002541920e+01 -1.8459009591789871e+02 0 0 0
1534 44 2 0.0000000000000000e+00 -6.3812576057104138e+01 -2.8990510357610120e+01 -1.8177983784823610e+02 0 0 0
4749 136 4 0.0000000000000000e+00 -4.4560870265508278e+01 -3.5380376530305256e+01 -1.7297129831524899e+02 0 0 0
2930 84 1 0.0000000000000000e+00 -1.3715882770079219e+02 -1.7650001762544274e+01 -1.7758412714874515e+02 0 0 0
6542 187 3 0.0000000000000000e+00 -1.4629779375094762e+02 -2.4402857374493713e+01 -1.7833293225182510e+02 0 0 0
2913 84 2 0.0000000000000000e+00 -1.1363993501962638e+02 -2.5682353761900856e+01 -1.7690001882527773e+02 0 0 0
2915 84 2 0.0000000000000000e+00 -1.0746764442410311e+02 -1.5589915127541863e+01 -1.8151977457489107e+02 0 0 0
5903 169 4 0.0000000000000000e+00 -9.2375078192975437e+01 -1.6692871073441122e+01 -1.7455160785354380e+02 0 0 0
1535 44 2 0.0000000000000000e+00 -7.0995488610747913e+01 -2.5714666022841595e+01 -1.7508906439469473e+02 0 0 0
3012 87 2 0.0000000000000000e+00 -6.5224302277824151e+01 -1.4755170114262738e+01 -1.7677063005904182e+02 0 0 0
2923 84 1 0.0000000000000000e+00 -1.5021618815668316e+02 -4.5280238261565131e-01 -1.7860177966333018e+02 0 0 0
2922 84 2 0.0000000000000000e+00 -1.4210740542053250e+02 -5.9382043676175407e+00 -1.7696402977946715e+02 0 0 0
2921 84 2 0.0000000000000000e+00 -1.3414683528380647e+02 -3.6906883898343081e+00 -1.7203138713007809e+02 0 0 0
2920 84 2 0.0000000000000000e+00 -1.2466897708923975e+02 -1.0492827082148395e+00 -1.7216817740014002e+02 0 0 0
2919 84 2 0.0000000000000000e+00 -1.1851681619259791e+02 5.1687626071115544e-01 -1.8041061495292058e+02 0 0 0
5904 169 4 0.0000000000000000e+00 -9.4567581968711920e+01 -1.0447898523640324e+01 -1.8156208233339490e+02 0 0 0
1766 51 2 0.0000000000000000e+00 -2.9163802809981735e+01 -3.2015876256471736e+00 -1.7249583987329160e+02 0 0 0
5885 169 4 0.0000000000000000e+00 -1.0858534686012777e+02 1.2544350386312972e+01 -1.7956588640711266e+02 0 0 0
2492 72 2 0.0000000000000000e+00 -1.6700046500873864e+02 1.6947431494220844e+01 -1.7211237263405249e+02 0 0 0
2494 72 2 0.0000000000000000e+00 -1.5028820841311452e+02 2.1163347755409362e+01 -1.8258338543375456e+02 0 0 0
2493 72 2 0.0000000000000000e+00 -1.5781660162730503e+02 1.7805952462405479e+01 -1.7675633661688525e+02 0 0 0
2940 84 2 0.0000000000000000e+00 -1.3820794278998358e+02 2.6186763638283288e+01 -1.7656050037161188e+02 0 0 0
5544 159 4 0.0000000000000000e+00 -1.2293437466693993e+02 -1.0791354101148087e+02 -1.6682753753968743e+02 0 0 0
5543 159 4 0.0000000000000000e+00 -1.1883303185660085e+02 -1.1679548321229336e+02 -1.6876754145425005e+02 0 0 0
2080 60 2 0.0000000000000000e+00 -7.7538824358032969e+01 -1.1576773336050636e+02 -1.6932197748417587e+02 0 0 0
2081 60 2 0.0000000000000000e+00 -7.6077863728628202e+01 -1.1417185707320682e+02 -1.5991267439152284e+02 0 0 0
5434 156 4 0.0000000000000000e+00 -3.3560765505063273e+01 -1.1082561161076215e+02 -1.6154132197828829e+02 0 0 0
5433 156 4 0.0000000000000000e+00 -2.8381985441455850e+01 -1.1887605242752404e+02 -1.5891104330214065e+02 0 0 0
5545 159 4 0.0000000000000000e+00 -1.2157010139415674e+02 -9.9065984186244066e+01 -1.6314418481949676e+02 0 0 0
2087 60 2 0.0000000000000000e+00 -4.1321517229956250e+01 -1.0560717608264645e+02 -1.5998913931971717e+02 0 0 0
2088 60 2 0.0000000000000000e+00 -4.1648612056396232e+01 -9.9502103260089200e+01 -1.6787234400432206e+02 0 0 0
5435 156 4 0.0000000000000000e+00 -3.0507199758502605e+01 -1.0163301317205003e+02 -1.6270107530113202e+02 0 0 0
5547 159 4 0.0000000000000000e+00 -1.2627973918491875e+02 -8.0711565740465119e+01 -1.7002249329706217e+02 0 0 0
5546 159 4 0.0000000000000000e+00 -1.2535483609654382e+02 -8.9602449009803692e+01 -1.6538082123825984e+02 0 0 0
6518 187 4 0.0000000000000000e+00 -9.5361631577358082e+01 -8.5029329884610760e+01 -1.6454691167631867e+02 0 0 0
6517 187 4 0.0000000000000000e+00 -1.0288170332923472e+02 -8.3761307647943269e+01 -1.5802258926169426e+02 0 0 0
2070 60 2 0.0000000000000000e+00 -6.7461334786125377e+01 -8.5926067164458289e+01 -1.6687804446751019e+02 0 0 0
2069 60 1 0.0000000000000000e+00 -6.0461081438805266e+01 -9.0101263355006125e+01 -1.6055132957001211e+02 0 0 0
2067 60 2 0.0000000000000000e+00 -4.0932752740488780e+01 -9.1108052987727788e+01 -1.5923847646472126e+02 0 0 0
2068 60 2 0.0000000000000000e+00 -5.0823916667669280e+01 -9.3431765187192312e+01 -1.5908049380101340e+02 0 0 0
4743 136 3 0.0000000000000000e+00 -5.3792463654453222e+01 -8.1758359475968945e+01 -1.5893661637685136e+02 0 0 0
2089 60 2 0.0000000000000000e+00 -3.8770833521089926e+01 -9.0235303594693676e+01 -1.7047494450529405e+02 0 0 0
5436 156 3 0.0000000000000000e+00 -3.0396043601346708e+01 -9.1886677883381296e+01 -1.6402129412270776e+02 0 0 0
5437 156 4 0.0000000000000000e+00 -3.4582411095134539e+01 -8.3023952793826751e+01 -1.6249133828349309e+02 0 0 0
6260 179 4 0.0000000000000000e+00 -1.6760000461243087e+02 -7.4142058581458684e+01 -1.6381047974282532e+02 0 0 0
6257 179 4 0.0000000000000000e+00 -1.4290553294336689e+02 -6.7692889186810348e+01 -1.6072956135983324e+02 0 0 0
5548 159 3 0.0000000000000000e+00 -1.2670518234597229e+02 -7.1026633330560642e+01 -1.7133062606431525e+02 0 0 0
1525 44 2 0.0000000000000000e+00 -1.1479283666509767e+02 -7.0136445010539191e+01 -1.6554115481493517e+02 0 0 0
6519 187 4 0.0000000000000000e+00 -9.7100457710190710e+01 -7.5061695074817806e+01 -1.6390495963224279e+02 0 0 0
4744 136 4 0.0000000000000000e+00 -5.0513974315527982e+01 -7.5767312084909193e+01 -1.6596769283686567e+02 0 0 0
3023 87 2 0.0000000000000000e+00 -3.0098728675667946e+01 -6.9275723469769659e+01 -1.6876401475634401e+02 0 0 0
3022 87 2 0.0000000000000000e+00 -3.6842785082252618e+01 -7.1495565015737569e+01 -1.6212549598086196e+02 0 0 0
6259 179 4 0.0000000000000000e+00 -1.6073200785826361e+02 -6.6204071967967437e+01 -1.6400097698490814e+02 0 0 0
6258 179 4 0.0000000000000000e+00 -1.5081766712999450e+02 -6.4687495504230967e+01 -1.6549554805290609e+02 0 0 0
5550 159 4 0.0000000000000000e+00 -1.3678178975255679e+02 -5.6102494101646379e+01 -1.6840027217088965e+02 0 0 0
5549 159 4 0.0000000000000000e+00 -1.3450394784868092e+02 -6.5453287484362747e+01 -1.7067941386791435e+02 0 0 0
1379 40 2 0.0000000000000000e+00 -1.2308512604224461e+02 -5.4995381699422055e+01 -1.5960254262210032e+02 0 0 0
1378 40 2 0.0000000000000000e+00 -1.1891920700120842e+02 -5.7556709613422676e+01 -1.6835693850339126e+02 0 0 0
6520 187 4 0.0000000000000000e+00 -9.8055490181262144e+01 -6.5167968164298799e+01 -1.6349789910816895e+02 0 0 0
6335 181 4 0.0000000000000000e+00 -7.2831869060013872e+01 -6.1645455485314493e+01 -1.6933676908056202e+02 0 0 0
6334 181 4 0.0000000000000000e+00 -6.5243184407966766e+01 -5.4507238590801094e+01 -1.6742917727113547e+02 0 0 0
4746 136 4 0.0000000000000000e+00 -5.2235291008322271e+01 -5.9182197665407436e+01 -1.7129353437467933e+02 0 0 0
1506 44 2 0.0000000000000000e+00 -4.5752595609085951e+01 -5.5967402873920186e+01 -1.6473601469284336e+02 0 0 0
3021 87 1 0.0000000000000000e+00 -4.1562942489414183e+01 -6.4176545195349533e+01 -1.5840108174033318e+02 0 0 0
5551 159 4 0.0000000000000000e+00 -1.3629141826134969e+02 -5.0038425148317167e+01 -1.6049874962695461e+02 0 0 0
5552 159 4 0.0000000000000000e+00 -1.3343597250162895e+02 -4.0750532530967561e+01 -1.5937288950308061e+02 0 0 0
6333 181 4 0.0000000000000000e+00 -6.0714040289061174e+01 -4.8170545526043398e+01 -1.6184089552868849e+02 0 0 0
1507 44 2 0.0000000000000000e+00 -4.6771896093267721e+01 -4.7256415614959138e+01 -1.6016398977501740e+02 0 0 0
2912 84 2 0.0000000000000000e+00 -1.1095971064046994e+02 -2.7738167346296681e+01 -1.6770965772473789e+02 0 0 0
5901 169 4 0.0000000000000000e+00 -9.1523251771713845e+01 -3.1445255859333994e+01 -1.6197804223265896e+02 0 0 0
6531 187 4 0.0000000000000000e+00 -8.0768712803254033e+01 -3.4219137429300709e+01 -1.7039299643663617e+02 0 0 0
6530 187 4 0.0000000000000000e+00 -7.3917987169070372e+01 -3.7960015079274108e+01 -1.6331671443477327e+02 0 0 0
1536 44 2 0.0000000000000000e+00 -7.0781574786381825e+01 -2.7883256646910088e+01 -1.6557839757785655e+02 0 0 0
3014 87 1 0.0000000000000000e+00 -5.5902688794696012e+01 -2.7270186307022268e+01 -1.6564780824418557e+02 0 0 0
4750 136 3 0.0000000000000000e+00 -4.4549799083518025e+01 -2.7078381838244553e+01 -1.6823989599233747e+02 0 0 0
5095 146 4 0.0000000000000000e+00 -3.1262771559744643e+01 -3.5845243448252141e+01 -1.7135718373462953e+02 0 0 0
5096 146 4 0.0000000000000000e+00 -3.0834890419761383e+01 -2.9960801208674997e+01 -1.6374072834556830e+02 0 0 0
6543 187 4 0.0000000000000000e+00 -1.4599087487309671e+02 -1.7523383956299391e+01 -1.7121611069819119e+02 0 0 0
2931 84 2 0.0000000000000000e+00 -1.3162010524275459e+02 -1.6384966511921935e+01 -1.6912617229306227e+02 0 0 0
2911 84 2 0.0000000000000000e+00 -1.0314894231903169e+02 -2.5106291865841303e+01 -1.6174873434389355e+02 0 0 0
5902 169 4 0.0000000000000000e+00 -8.8806441090658836e+01 -2.3072948129003159e+01 -1.6693195438532308e+02 0 0 0
3013 87 2 0.0000000000000000e+00 -6.0180862465290097e+01 -1.9307893981220730e+01 -1.6966829217217645e+02 0 0 0
4751 136 4 0.0000000000000000e+00 -3.9985890015808295e+01 -2.0324238146843609e+01 -1.6228462095170775e+02 0 0 0
6544 187 4 0.0000000000000000e+00 -1.5095577756156780e+02 -1.1311523207318942e+01 -1.6495944693941431e+02 0 0 0
2932 84 2 0.0000000000000000e+00 -1.2711152443548610e+02 -1.2694485857115410e+01 -1.6159192648226502e+02 0 0 0
4752 136 4 0.0000000000000000e+00 -3.5204478014233231e+01 -1.2203082974239372e+01 -1.5880645447741171e+02 0 0 0
5886 169 4 0.0000000000000000e+00 -1.0709094497203348e+02 1.2157236447306088e+01 -1.6973000245415508e+02 0 0 0
2491 72 2 0.0000000000000000e+00 -1.7368181561338298e+02 1.7338468619287230e+01 -1.6402523447137821e+02 0 0 0
2939 84 2 0.0000000000000000e+00 -1.4128478875236536e+02 2.3026149038999215e+01 -1.6826531519402857e+02 0 0 0
2938 84 2 0.0000000000000000e+00 -1.4392446450415432e+02 1.9114591208307829e+01 -1.5941879978076938e+02 0 0 0
5887 169 4 0.0000000000000000e+00 -1.0400205971195531e+02 1.7587692722814129e+01 -1.6182346405548614e+02 0 0 0
476 14 2 0.0000000000000000e+00 -5.5494567629879612e+01 2.6903095233374117e+01 -1.6087872894674010e+02 0 0 0
475 14 2 0.0000000000000000e+00 -5.3227742043207577e+01 2.6929598458610762e+01 -1.7042822355578951e+02 0 0 0
1752 51 2 0.0000000000000000e+00 -2.7889448824943614e+01 2.4327286583518767e+01 -1.6198630910215493e+02 0 0 0
1611 47 2 0.0000000000000000e+00 -3.4533293520834235e+01 -1.1215438530886799e+02 -1.4686275838315871e+02 0 0 0
2082 60 2 0.0000000000000000e+00 -7.4169033274219643e+01 -1.0753932357265974e+02 -1.5333926223944420e+02 0 0 0
6325 181 3 0.0000000000000000e+00 -7.8519706106908714e+01 -9.9929507797247794e+01 -1.4957292748509377e+02 0 0 0
2083 60 1 0.0000000000000000e+00 -7.0329513562057087e+01 -9.8619353186985293e+01 -1.5647739281372381e+02 0 0 0
2084 60 2 0.0000000000000000e+00 -6.1913853153361750e+01 -9.4504084663030824e+01 -1.5148164441960844e+02 0 0 0
2085 60 2 0.0000000000000000e+00 -5.2866179545630558e+01 -9.7101979766798664e+01 -1.4812843315200237e+02 0 0 0
2086 60 2 0.0000000000000000e+00 -4.8271683547345127e+01 -1.0459144703110948e+02 -1.5304853030843938e+02 0 0 0
6262 179 3 0.0000000000000000e+00 -1.7867836246019448e+02 -8.2735087364140753e+01 -1.4856943953461345e+02 0 0 0
6263 179 4 0.0000000000000000e+00 -1.8761156274559789e+02 -8.7352123547549326e+01 -1.4571832870405893e+02 0 0 0
6255 179 3 0.0000000000000000e+00 -1.3223224664529303e+02 -8.2459695236239881e+01 -1.5268976597839844e+02 0 0 0
2805 81 2 0.0000000000000000e+00 -1.2219612695823727e+02 -8.1525351769127724e+01 -1.5057457080186779e+02 0 0 0
6254 179 4 0.0000000000000000e+00 -1.2962075884203648e+02 -8.7972494336388507e+01 -1.4494051000964973e+02 0 0 0
2806 81 2 0.0000000000000000e+00 -1.1729154215104845e+02 -8.8869578897147179e+01 -1.4777973417683057e+02 0 0 0
6516 187 4 0.0000000000000000e+00 -1.0793604598563286e+02 -8.5380009943653462e+01 -1.4933163051092370e+02 0 0 0
6327 181 4 0.0000000000000000e+00 -8.8965855224345077e+01 -8.3347276232280535e+01 -1.5191184389494146e+02 0 0 0
6326 181 4 0.0000000000000000e+00 -8.3741191648990991e+01 -9.0831407997145178e+01 -1.4931603922938072e+02 0 0 0
4742 136 4 0.0000000000000000e+00 -5.1341311355025454e+01 -8.7488356375356830e+01 -1.5040704953606738e+02 0 0 0
2066 60 2 0.0000000000000000e+00 -3.4469685424178998e+01 -9.0188908353206401e+01 -1.5136351212683729e+02 0 0 0
6261 179 4 0.0000000000000000e+00 -1.7228122197734874e+02 -7.9800607751770102e+01 -1.5656014371260477e+02 0 0 0
6256 179 4 0.0000000000000000e+00 -1.3608865504410733e+02 -7.4402452969593710e+01 -1.5717083076772931e+02 0 0 0
2804 81 1 0.0000000000000000e+00 -1.2762518262084693e+02 -7.2475572474496062e+01 -1.5110188624331684e+02 0 0 0
6328 181 4 0.0000000000000000e+00 -8.8843178444553459e+01 -7.3979603435583158e+01 -1.4955332824055230e+02 0 0 0
6329 181 4 0.0000000000000000e+00 -8.1870288791489457e+01 -6.7435584128506093e+01 -1.5218601871158214e+02 0 0 0
4729 136 3 0.0000000000000000e+00 -4.8297150719745090e+01 -7.1847636275907107e+01 -1.5399091249388482e+02 0 0 0
4730 136 4 0.0000000000000000e+00 -4.3733390515034912e+01 -7.7449745264741850e+01 -1.4678143887672414e+02 0 0 0
4731 136 4 0.0000000000000000e+00 -3.5321833705397133e+01 -7.7740032127072752e+01 -1.5194755010627961e+02 0 0 0
2803 81 2 0.0000000000000000e+00 -1.2905273453879539e+02 -6.3414503740362790e+01 -1.4787316069092574e+02 0 0 0
1524 44 2 0.0000000000000000e+00 -1.1087595637412591e+02 -6.4826978470832486e+01 -1.5772403495325608e+02 0 0 0
1523 44 1 0.0000000000000000e+00 -1.0405998494609400e+02 -6.2157919688697859e+01 -1.5151289989678423e+02 0 0 0
6521 187 3 0.0000000000000000e+00 -9.5019157639925197e+01 -5.8659364314218848e+01 -1.5753966781428784e+02 0 0 0
6331 181 4 0.0000000000000000e+00 -6.8081151170965200e+01 -5.5065861908235988e+01 -1.5682919828926518e+02 0 0 0
6330 181 4 0.0000000000000000e+00 -7.6566287470184861e+01 -6.0546693044734923e+01 -1.5670744685348910e+02 0 0 0
4727 136 4 0.0000000000000000e+00 -6.2777489370481753e+01 -6.3088655347380858e+01 -1.4551509581414831e+02 0 0 0
4728 136 4 0.0000000000000000e+00 -5.4477830119397133e+01 -6.4961613784700774e+01 -1.5127276666741196e+02 0 0 0
3020 87 2 0.0000000000000000e+00 -3.9772216732625665e+01 -5.6720104169628250e+01 -1.5216262403102917e+02 0 0 0
1380 40 2 0.0000000000000000e+00 -1.2134597714544124e+02 -5.2401901202101762e+01 -1.5016038117042393e+02 0 0 0
6522 187 4 0.0000000000000000e+00 -9.2071785221518951e+01 -5.3238467477076966e+01 -1.5033827774915230e+02 0 0 0
6523 187 4 0.0000000000000000e+00 -8.3424434180943180e+01 -5.3179717387467505e+01 -1.4526484777621835e+02 0 0 0
6524 187 4 0.0000000000000000e+00 -8.0371830002097354e+01 -4.8505629275324743e+01 -1.5291880081812650e+02 0 0 0
6332 181 3 0.0000000000000000e+00 -6.1359148189093382e+01 -4.9961267196007086e+01 -1.5187914698087559e+02 0 0 0
3019 87 2 0.0000000000000000e+00 -3.7631391139373775e+01 -4.6800157413015555e+01 -1.5260947039550751e+02 0 0 0
5553 159 4 0.0000000000000000e+00 -1.2971138984793402e+02 -3.5348183413320271e+01 -1.5242992863586645e+02 0 0 0
5899 169 4 0.0000000000000000e+00 -1.0074922494543230e+02 -3.3238168524155995e+01 -1.5167958372656986e+02 0 0 0
6525 187 4 0.0000000000000000e+00 -8.1590019493340805e+01 -3.9550642907488331e+01 -1.5561949697474151e+02 0 0 0
5900 169 4 0.0000000000000000e+00 -9.4191342687917697e+01 -3.8651284890414402e+01 -1.5633574994577182e+02 0 0 0
6526 187 4 0.0000000000000000e+00 -7.8195128451691829e+01 -3.3028877470233965e+01 -1.4963152472862879e+02 0 0 0
6528 187 3 0.0000000000000000e+00 -6.8179909156077315e+01 -3.2700819123153046e+01 -1.4648490633978926e+02 0 0 0
6529 187 4 0.0000000000000000e+00 -6.9382148464286772e+01 -3.8907490970275994e+01 -1.5388380890055512e+02 0 0 0
1509 44 1 0.0000000000000000e+00 -5.8347911024247537e+01 -3.9279095380019939e+01 -1.5144458967727883e+02 0 0 0
3015 87 2 0.0000000000000000e+00 -5.5816261448996286e+01 -3.0489654967995353e+01 -1.5635743076292982e+02 0 0 0
1508 44 2 0.0000000000000000e+00 -4.8851188151359111e+01 -3.9404523090217481e+01 -1.5538618314922624e+02 0 0 0
3017 87 2 0.0000000000000000e+00 -4.1015022280364761e+01 -2.8888657653418555e+01 -1.5568963409303845e+02 0 0 0
3018 87 2 0.0000000000000000e+00 -3.9552634780194062e+01 -3.8087832180645350e+01 -1.5702551974659758e+02 0 0 0
5898 169 3 0.0000000000000000e+00 -1.0441262264733841e+02 -2.6106899817491033e+01 -1.4519981009784681e+02 0 0 0
2910 84 2 0.0000000000000000e+00 -9.5598438030465587e+01 -2.2357598033675952e+01 -1.5628208327479709e+02 0 0 0
2909 84 1 0.0000000000000000e+00 -9.5904689889713069e+01 -1.9522482821946369e+01 -1.4682555297448312e+02 0 0 0
1537 44 1 0.0000000000000000e+00 -7.1566234910434375e+01 -2.6397586467454662e+01 -1.5557558472654776e+02 0 0 0
1539 44 2 0.0000000000000000e+00 -7.0292787827844776e+01 -1.3805568669861032e+01 -1.4750018835049457e+02 0 0 0
1538 44 2 0.0000000000000000e+00 -7.7027676579165018e+01 -2.1304347767497259e+01 -1.4898818104582449e+02 0 0 0
3016 87 2 0.0000000000000000e+00 -4.8763266511760037e+01 -2.2982008725823110e+01 -1.5577129281491233e+02 0 0 0
6545 187 4 0.0000000000000000e+00 -1.5631599964485770e+02 -7.5653353976753062e+00 -1.5681206709783470e+02 0 0 0
2933 84 2 0.0000000000000000e+00 -1.2582986258044595e+02 -3.3451327003339921e+00 -1.5763572565457903e+02 0 0 0
4753 136 4 0.0000000000000000e+00 -3.2845766039416482e+01 -2.7894708732136495e+00 -1.5658246479325425e+02 0 0 0
2934 84 2 0.0000000000000000e+00 -1.2670702896452138e+02 1.8600442820676255e+00 -1.4879853924426052e+02 0 0 0
2935 84 2 0.0000000000000000e+00 -1.3331670155960279e+02 9.2086743429694913e+00 -1.4985977685940833e+02 0 0 0
4754 136 4 0.0000000000000000e+00 -3.0917277893493967e+01 4.2311557252943377e+00 -1.5051980843231627e+02 0 0 0
2490 72 2 0.0000000000000000e+00 -1.7346527840429948e+02 2.1453812197114097e+01 -1.5480245543846746e+02 0 0 0
2489 72 1 0.0000000000000000e+00 -1.6594767511861863e+02 2.7081416913097957e+01 -1.5067639077997273e+02 0 0 0
2937 84 1 0.0000000000000000e+00 -1.4461807775776833e+02 2.1573118632690324e+01 -1.5037784424090512e+02 0 0 0
2936 84 2 0.0000000000000000e+00 -1.4021477585780295e+02 1.4348918715765967e+01 -1.4483982487820842e+02 0 0 0
1796 52 1 0.0000000000000000e+00 -1.3464848127933993e+02 2.4907203775672588e+01 -1.4592919690820077e+02 0 0 0
5888 169 4 0.0000000000000000e+00 -1.0241968718386208e+02 1.8086624221375320e+01 -1.5214731250728823e+02 0 0 0
1751 51 2 0.0000000000000000e+00 -3.4606318367234863e+01 2.6545014160829108e+01 -1.5514462004817577e+02 0 0 0
6321 181 4 0.0000000000000000e+00 -5.4563092558030512e+01 -1.1343521716915664e+02 -1.3512649344553068e+02 0 0 0
5426 156 4 0.0000000000000000e+00 -4.0551028484091376e+01 -1.0967006709926201e+02 -1.3320195453590887e+02 0 0 0
1612 47 2 0.0000000000000000e+00 -3.4412100514425070e+01 -1.1719911276468781e+02 -1.3812768402998987e+02 0 0 0
6265 179 4 0.0000000000000000e+00 -1.9802788067934563e+02 -9.8855486910256971e+01 -1.3339855152406983e+02 0 0 0
2807 81 2 0.0000000000000000e+00 -1.1457996020765013e+02 -9.6413021184826462e+01 -1.4204879443816949e+02 0 0 0
6252 179 4 0.0000000000000000e+00 -1.2057274268448461e+02 -9.6533572324525878e+01 -1.3050160071991542e+02 0 0 0
2808 81 2 0.0000000000000000e+00 -1.0662169836476215e+02 -1.0214410220941267e+02 -1.3968176742140955e+02 0 0 0
6324 181 4 0.0000000000000000e+00 -7.4930689900244914e+01 -9.6189591956279415e+01 -1.4080734683162339e+02 0 0 0
6323 181 4 0.0000000000000000e+00 -6.5911015283277777e+01 -9.9532580545869152e+01 -1.4284400252352191e+02 0 0 0
6322 181 4 0.0000000000000000e+00 -5.8120439928221344e+01 -1.0537442653454218e+02 -1.3898479961839510e+02 0 0 0