LAMMPS data file via write_data, version 5 Jun 2019, timestep = 360000000

7000 atoms
4 atom types
7262 bonds
3 bond types
6600 angles
2 angle types

-5.0000000000000000e+02 5.0000000000000000e+02 xlo xhi
-5.0000000000000000e+02 5.0000000000000000e+02 ylo yhi
-5.0000000000000000e+02 5.0000000000000000e+02 zlo zhi

Masses

1 1000
2 1000
3 1000
4 1000

Pair Coeffs # lj/cut

1 0.178 10
2 0.178 10
3 0.178 10
4 0.178 10

Angle Coeffs # cosine

1 2
2 2

Atoms # full

2817 81 2 0.0000000000000000e+00 -6.2929743179088938e+01 -9.6466692661800167e+01 -2.0733115966475791e+02 0 0 0
2816 81 2 0.0000000000000000e+00 -7.1206477440724697e+01 -9.4600540569926252e+01 -2.0296261890506170e+02 0 0 0
2811 81 1 0.0000000000000000e+00 -8.9323395191995900e+01 -5.9828328714901645e+01 -2.0268657752197143e+02 0 0 0
2812 81 2 0.0000000000000000e+00 -7.9523633528237994e+01 -6.3675632775813952e+01 -2.0233530107729504e+02 0 0 0
5560 159 4 0.0000000000000000e+00 -1.3199846102292685e+02 -1.1457242666586095e+02 -1.9250504198115650e+02 0 0 0
2818 81 1 0.0000000000000000e+00 -5.8129151997168854e+01 -1.0019443284322796e+02 -1.9902923948549886e+02 0 0 0
2819 81 2 0.0000000000000000e+00 -5.5414326469328685e+01 -1.0277562141770237e+02 -1.8974196192900911e+02 0 0 0
6545 187 4 0.0000000000000000e+00 -1.6957801400711168e+02 -7.9551060431766587e+01 -1.9830805474460706e+02 0 0 0
5564 159 4 0.0000000000000000e+00 -1.4203598354084488e+02 -8.1999691552510569e+01 -1.8947100094591451e+02 0 0 0
2815 81 2 0.0000000000000000e+00 -7.3602698378154088e+01 -8.5468654783428576e+01 -2.0024013908372939e+02 0 0 0
6544 187 4 0.0000000000000000e+00 -1.6289032134563777e+02 -7.6529861795499045e+01 -1.9239127579155914e+02 0 0 0
5565 159 4 0.0000000000000000e+00 -1.4310646065990016e+02 -7.1864858574706787e+01 -1.9071808857229811e+02 0 0 0
2808 81 2 0.0000000000000000e+00 -1.1486371474328446e+02 -6.6679388044063501e+01 -1.9219521088860276e+02 0 0 0
2813 81 2 0.0000000000000000e+00 -7.1571328417546468e+01 -6.7118251185411495e+01 -1.9821531528175336e+02 0 0 0
2814 81 2 0.0000000000000000e+00 -6.9469570176813690e+01 -7.5935531669507426e+01 -2.0131543264981141e+02 0 0 0
2809 81 2 0.0000000000000000e+00 -1.0704356158070900e+02 -6.1119088729006570e+01 -1.9514930987805820e+02 0 0 0
2810 81 2 0.0000000000000000e+00 -9.9101468981778908e+01 -5.9824951794808449e+01 -2.0069703584776562e+02 0 0 0
6350 182 4 0.0000000000000000e+00 -8.2853343187834795e+01 -1.6463186546210157e+01 -1.9616422896650215e+02 0 0 0
2486 72 2 0.0000000000000000e+00 -1.1127190499240592e+02 -8.4409739526069991e+00 -1.9892151234083329e+02 0 0 0
2487 72 2 0.0000000000000000e+00 -1.0489951642634405e+02 -3.2140562148129068e+00 -1.9259390506861635e+02 0 0 0
6348 182 4 0.0000000000000000e+00 -9.5485647172025594e+01 -3.4182283593131246e+00 -1.9893888497735367e+02 0 0 0
6349 182 4 0.0000000000000000e+00 -8.6876811898018403e+01 -8.3573308043163923e+00 -1.9931097646221215e+02 0 0 0
6346 182 3 0.0000000000000000e+00 -1.0358804377662817e+02 1.4919033565843636e+01 -2.0046757051484428e+02 0 0 0
2489 72 1 0.0000000000000000e+00 -1.0039105926271152e+02 1.3747914417568417e+01 -1.8996186959314582e+02 0 0 0
6347 182 4 0.0000000000000000e+00 -1.0104804471850888e+02 5.5416401693563175e+00 -1.9995165586588988e+02 0 0 0
6178 177 3 0.0000000000000000e+00 -1.4559080568666124e+02 2.8040302096839678e+01 -1.9526372756195806e+02 0 0 0
6177 177 4 0.0000000000000000e+00 -1.3617978008204145e+02 2.7594549529698256e+01 -1.9387192951735699e+02 0 0 0
6344 182 4 0.0000000000000000e+00 -1.1712098593650647e+02 2.9478838305828109e+01 -2.0004200842588656e+02 0 0 0
6345 182 4 0.0000000000000000e+00 -1.0973189705597613e+02 2.3209562321573312e+01 -2.0006406809243876e+02 0 0 0
5561 159 4 0.0000000000000000e+00 -1.3673070491573515e+02 -1.0899407332502564e+02 -1.8513608526800778e+02 0 0 0
5559 159 4 0.0000000000000000e+00 -1.2399825345260670e+02 -1.1307605060095725e+02 -1.8643575636771726e+02 0 0 0
5558 159 4 0.0000000000000000e+00 -1.2059914432951832e+02 -1.0968298887649736e+02 -1.7808555678713049e+02 0 0 0
2820 81 2 0.0000000000000000e+00 -5.2501456522859307e+01 -1.0606232102830766e+02 -1.8056785157963776e+02 0 0 0
5562 159 3 0.0000000000000000e+00 -1.3929284465792318e+02 -9.9733591687554522e+01 -1.8307910971922615e+02 0 0 0
5076 146 4 0.0000000000000000e+00 -3.9958305036590566e+01 -9.9131831135704132e+01 -1.7620580300298090e+02 0 0 0
6543 187 4 0.0000000000000000e+00 -1.6099435686557945e+02 -7.8792330175708415e+01 -1.8339814325788512e+02 0 0 0
5563 159 4 0.0000000000000000e+00 -1.4353740514873303e+02 -9.1445718713949546e+01 -1.8543490775742407e+02 0 0 0
2805 81 2 0.0000000000000000e+00 -1.3635887245075051e+02 -8.1256621700722860e+01 -1.7997551249122361e+02 0 0 0
1380 40 2 0.0000000000000000e+00 -9.4913538933674758e+01 -8.3742578159439546e+01 -1.7624087882066442e+02 0 0 0
2835 81 2 0.0000000000000000e+00 -5.1130796881447196e+01 -8.9590247724287792e+01 -1.8224525863397605e+02 0 0 0
6232 179 4 0.0000000000000000e+00 -3.5242019733491894e+01 -8.8782968734555539e+01 -1.7881240271562785e+02 0 0 0
2834 81 2 0.0000000000000000e+00 -4.5699747887313855e+01 -8.1606388233417150e+01 -1.8024721173954026e+02 0 0 0
6233 179 4 0.0000000000000000e+00 -3.1051059146963304e+01 -8.3049682376414808e+01 -1.8572534593596899e+02 0 0 0
6535 187 3 0.0000000000000000e+00 -1.4270856274549175e+02 -7.3905623472842422e+01 -1.7491446035600640e+02 0 0 0
2806 81 2 0.0000000000000000e+00 -1.3128836995819799e+02 -7.4173124038626440e+01 -1.8505278557162379e+02 0 0 0
2807 81 2 0.0000000000000000e+00 -1.2425501585638374e+02 -6.8112385273759614e+01 -1.8795639568952643e+02 0 0 0
1379 40 2 0.0000000000000000e+00 -8.7436258985031245e+01 -7.8504419545096809e+01 -1.7896768494786389e+02 0 0 0
1378 40 2 0.0000000000000000e+00 -7.8730657639650602e+01 -7.4021429870492355e+01 -1.7913291197754916e+02 0 0 0
1375 40 2 0.0000000000000000e+00 -5.1837551584399208e+01 -6.6208797195770188e+01 -1.7536067039012229e+02 0 0 0
2833 81 2 0.0000000000000000e+00 -3.9712215568694702e+01 -7.4139811101124678e+01 -1.7668728561808973e+02 0 0 0
6234 179 3 0.0000000000000000e+00 -2.5047976835090623e+01 -7.4887992303966087e+01 -1.8538975420635580e+02 0 0 0
2832 81 1 0.0000000000000000e+00 -3.2092724513821700e+01 -6.8738210177205659e+01 -1.7930095474674857e+02 0 0 0
1374 40 2 0.0000000000000000e+00 -4.5744921872555643e+01 -6.0358233941469642e+01 -1.8097109781392328e+02 0 0 0
1373 40 2 0.0000000000000000e+00 -3.5901521163681196e+01 -6.0924793989914242e+01 -1.8432335575350348e+02 0 0 0
1372 40 2 0.0000000000000000e+00 -3.1492232164959674e+01 -5.9675470543727847e+01 -1.7532859994300290e+02 0 0 0
6241 179 3 0.0000000000000000e+00 -5.0470165564833579e+01 -4.2863416805873641e+01 -1.7462335537663444e+02 0 0 0
6240 179 4 0.0000000000000000e+00 -4.0397025380312641e+01 -4.2447252517506598e+01 -1.7627150476264492e+02 0 0 0
2495 72 2 0.0000000000000000e+00 -9.2810516487589950e+01 -2.7688934445578518e+01 -1.7566407108880412e+02 0 0 0
2497 72 2 0.0000000000000000e+00 -8.2378801142509573e+01 -3.3465044313839584e+01 -1.7550132892594854e+02 0 0 0
2498 72 2 0.0000000000000000e+00 -7.3021463517801408e+01 -3.0832789181054434e+01 -1.7634076116591569e+02 0 0 0
2499 72 2 0.0000000000000000e+00 -6.2800480615912981e+01 -3.1240843717060908e+01 -1.7506427114285844e+02 0 0 0
6351 182 4 0.0000000000000000e+00 -7.9564525653814158e+01 -2.1549167622812483e+01 -1.8768394018103996e+02 0 0 0
6352 182 4 0.0000000000000000e+00 -7.4474690080043288e+01 -1.7481632617285253e+01 -1.8029670193156824e+02 0 0 0
6353 182 3 0.0000000000000000e+00 -7.1284009863704213e+01 -9.0041707312519748e+00 -1.7524067584116372e+02 0 0 0
2503 72 1 0.0000000000000000e+00 -6.8638456381542412e+01 1.3204697669827916e+00 -1.7874306271907534e+02 0 0 0
2520 72 2 0.0000000000000000e+00 -1.1769480167086543e+02 1.0952262786259809e+01 -1.8034599928132542e+02 0 0 0
2488 72 2 0.0000000000000000e+00 -1.0045813509818927e+02 4.0145198672670537e+00 -1.8755179956460171e+02 0 0 0
2490 72 2 0.0000000000000000e+00 -9.6627470944758571e+01 1.6137670310321365e+01 -1.8118383698476504e+02 0 0 0
2491 72 2 0.0000000000000000e+00 -9.7112308294826690e+01 8.3281408123833245e+00 -1.7480819826579398e+02 0 0 0
2504 72 2 0.0000000000000000e+00 -7.5072700471866384e+01 9.1603019753720076e+00 -1.8033145718254141e+02 0 0 0
6176 177 4 0.0000000000000000e+00 -1.3280182061369462e+02 2.1904128396494102e+01 -1.8593709314245976e+02 0 0 0
6175 177 4 0.0000000000000000e+00 -1.3544955134262082e+02 2.3745324804612022e+01 -1.7664407611078568e+02 0 0 0
480 14 1 0.0000000000000000e+00 -9.4725715025261593e+01 2.6434220136145960e+01 -1.8131519170448928e+02 0 0 0
2505 72 2 0.0000000000000000e+00 -7.9679382719787768e+01 1.7402349988618038e+01 -1.8479339524693728e+02 0 0 0
6164 177 3 0.0000000000000000e+00 -8.8525942582318621e+01 1.9738204018123110e+01 -1.7544312690852090e+02 0 0 0
2506 72 2 0.0000000000000000e+00 -7.3194405436463171e+01 2.4893483035802294e+01 -1.8552996298804973e+02 0 0 0
2821 81 2 0.0000000000000000e+00 -5.6018474781809012e+01 -1.1320595312972733e+02 -1.7371899230583409e+02 0 0 0
2822 81 2 0.0000000000000000e+00 -5.7073771617032918e+01 -1.1124077889427969e+02 -1.6347071092340661e+02 0 0 0
5557 159 4 0.0000000000000000e+00 -1.1949365849472133e+02 -1.0444803060824287e+02 -1.6960528421976989e+02 0 0 0
5556 159 4 0.0000000000000000e+00 -1.1254484872291422e+02 -1.0055269786825453e+02 -1.6399570214977206e+02 0 0 0
5554 159 4 0.0000000000000000e+00 -9.5217284359426657e+01 -9.8587110042411538e+01 -1.6259648457539805e+02 0 0 0
5552 159 4 0.0000000000000000e+00 -8.1647088965470516e+01 -9.2589817930062623e+01 -1.7109321102287595e+02 0 0 0
5553 159 4 0.0000000000000000e+00 -8.9211870576682898e+01 -9.8661001033517081e+01 -1.6994318069261905e+02 0 0 0
6306 181 4 0.0000000000000000e+00 -5.2652754460076231e+01 -9.7171702441019960e+01 -1.6279856609659930e+02 0 0 0
6303 181 4 0.0000000000000000e+00 -2.6729656376320513e+01 -9.8800344652394330e+01 -1.6263177867451060e+02 0 0 0
6541 187 4 0.0000000000000000e+00 -1.5847373866428336e+02 -8.1905370646036133e+01 -1.6593494350473296e+02 0 0 0
6536 187 4 0.0000000000000000e+00 -1.4937719836272555e+02 -8.1438870744693290e+01 -1.7349095535279014e+02 0 0 0
6537 187 4 0.0000000000000000e+00 -1.4473051323021065e+02 -8.3499214173497876e+01 -1.6419570262653545e+02 0 0 0
2804 81 1 0.0000000000000000e+00 -1.3693529770424757e+02 -8.2134257918889119e+01 -1.7016864003430757e+02 0 0 0
1382 40 2 0.0000000000000000e+00 -1.0880716938427395e+02 -8.5894513617798737e+01 -1.6371088334012973e+02 0 0 0
1381 40 2 0.0000000000000000e+00 -1.0409580066686617e+02 -8.5291290777495277e+01 -1.7237317616011248e+02 0 0 0
5551 159 4 0.0000000000000000e+00 -7.3273506855386472e+01 -8.8031407865730188e+01 -1.7310955820477619e+02 0 0 0
5550 159 4 0.0000000000000000e+00 -6.4997874422756823e+01 -8.2476057360928905e+01 -1.7091025123706942e+02 0 0 0
6231 179 4 0.0000000000000000e+00 -3.6024795687484541e+01 -8.2863154908638663e+01 -1.7121467667671760e+02 0 0 0
5077 146 4 0.0000000000000000e+00 -4.6016392815523481e+01 -9.2233337523274784e+01 -1.7213418990386046e+02 0 0 0
5078 146 4 0.0000000000000000e+00 -4.4985519123705345e+01 -8.4337428098393914e+01 -1.6604998989555074e+02 0 0 0
2829 81 2 0.0000000000000000e+00 -2.4414698694459414e+01 -8.6975383503563634e+01 -1.6434344373757457e+02 0 0 0
2830 81 2 0.0000000000000000e+00 -2.6437255771360643e+01 -8.0833297221226942e+01 -1.7145810022053632e+02 0 0 0
6542 187 3 0.0000000000000000e+00 -1.6155481640447334e+02 -7.8034411482567407e+01 -1.7400533608839871e+02 0 0 0
6534 187 4 0.0000000000000000e+00 -1.3574511097592907e+02 -6.9790224897387802e+01 -1.6956833701902849e+02 0 0 0
1377 40 2 0.0000000000000000e+00 -7.0587880808530116e+01 -7.3720855780660344e+01 -1.7397041920046485e+02 0 0 0
1376 40 1 0.0000000000000000e+00 -6.2169162650633616e+01 -6.8432746180816622e+01 -1.7376247417847460e+02 0 0 0
5549 159 4 0.0000000000000000e+00 -6.1796086673539975e+01 -7.4855445494439692e+01 -1.6450378532243184e+02 0 0 0
5548 159 3 0.0000000000000000e+00 -6.0149823392677106e+01 -6.5392334185295198e+01 -1.6281550682636527e+02 0 0 0
2831 81 2 0.0000000000000000e+00 -2.5234325794753268e+01 -7.1009902550186325e+01 -1.7137067147743261e+02 0 0 0
6533 187 4 0.0000000000000000e+00 -1.3547325647309955e+02 -5.9501575729160649e+01 -1.6900709165914785e+02 0 0 0
1370 40 2 0.0000000000000000e+00 -4.8381601230118513e+01 -5.5822614276689890e+01 -1.7054755065835130e+02 0 0 0
1371 40 2 0.0000000000000000e+00 -3.8123577717092040e+01 -5.4820483033146481e+01 -1.7042805007234736e+02 0 0 0
6532 187 4 0.0000000000000000e+00 -1.3707784008479359e+02 -5.1149284321281591e+01 -1.6382227546575811e+02 0 0 0
6243 179 4 0.0000000000000000e+00 -6.8301199592271018e+01 -4.0522250932029976e+01 -1.6636067617609362e+02 0 0 0
1369 40 1 0.0000000000000000e+00 -5.7198842869953332e+01 -5.1095625143333450e+01 -1.7060339383678286e+02 0 0 0
6242 179 4 0.0000000000000000e+00 -5.9528819925465314e+01 -4.1689591550547092e+01 -1.7060262009520557e+02 0 0 0
1368 40 2 0.0000000000000000e+00 -5.0193612985180444e+01 -4.7147427551966757e+01 -1.6473730553882771e+02 0 0 0
1367 40 2 0.0000000000000000e+00 -4.0600197027378606e+01 -4.4533684101295130e+01 -1.6314438520770312e+02 0 0 0
6238 179 4 0.0000000000000000e+00 -2.3936582913294924e+01 -4.9491853132960642e+01 -1.7070028325331543e+02 0 0 0
6239 179 4 0.0000000000000000e+00 -3.2345523928865092e+01 -4.3427161813173399e+01 -1.7031424823984821e+02 0 0 0
2496 72 1 0.0000000000000000e+00 -9.0854800448008220e+01 -3.6262683355706287e+01 -1.7117985759099582e+02 0 0 0
6244 179 4 0.0000000000000000e+00 -7.7578386722653789e+01 -3.7462176564830003e+01 -1.6473729701835006e+02 0 0 0
2494 72 2 0.0000000000000000e+00 -9.0658542288201915e+01 -1.9945316873176388e+01 -1.7087072161063585e+02 0 0 0
2501 72 2 0.0000000000000000e+00 -6.2704247911446451e+01 -1.2777420098075366e+01 -1.7102905077084830e+02 0 0 0
2500 72 2 0.0000000000000000e+00 -6.2871586510802501e+01 -2.2475208369163553e+01 -1.7083373382455227e+02 0 0 0
4935 141 4 0.0000000000000000e+00 -3.6819917253003389e+01 -1.1357690262990754e+01 -1.6393146476648747e+02 0 0 0
2518 72 2 0.0000000000000000e+00 -1.1695541522089296e+02 -5.1949978798804530e-01 -1.6429974656859474e+02 0 0 0
2493 72 2 0.0000000000000000e+00 -9.1466349365621937e+01 -1.0160776321498661e+01 -1.7085256349721132e+02 0 0 0
2492 72 2 0.0000000000000000e+00 -9.4883041915264940e+01 -7.5256724691026178e-01 -1.7172663977781801e+02 0 0 0
6354 182 4 0.0000000000000000e+00 -7.3242617269938251e+01 -7.8622441813927484e+00 -1.6505965963657536e+02 0 0 0
2502 72 2 0.0000000000000000e+00 -6.5278798218112044e+01 -3.0575503390180709e+00 -1.7001032105626413e+02 0 0 0
4934 141 4 0.0000000000000000e+00 -3.5417153501063503e+01 -1.2805057559114910e+00 -1.6112237330409471e+02 0 0 0
2936 84 2 0.0000000000000000e+00 -1.6293424243214102e+02 1.5537243850452301e+01 -1.6312355043872347e+02 0 0 0
2519 72 2 0.0000000000000000e+00 -1.1839289937558064e+02 4.7356956016931422e+00 -1.7256817004109129e+02 0 0 0
6163 177 4 0.0000000000000000e+00 -8.3952106825111471e+01 1.1550910551610997e+01 -1.7316938523454226e+02 0 0 0
6162 177 4 0.0000000000000000e+00 -8.0319198290199068e+01 7.6749608974463897e+00 -1.6505284685618079e+02 0 0 0
6186 177 4 0.0000000000000000e+00 -1.8024663827433906e+02 2.0757948690185582e+01 -1.6483640087558715e+02 0 0 0
6185 177 3 0.0000000000000000e+00 -1.7454776965126163e+02 2.9100071714355764e+01 -1.6500633001486270e+02 0 0 0
2937 84 1 0.0000000000000000e+00 -1.7063801781376841e+02 1.9392211208095397e+01 -1.6817152990288440e+02 0 0 0
2938 84 2 0.0000000000000000e+00 -1.6846678136584694e+02 2.7464404608100427e+01 -1.7424760938269793e+02 0 0 0
5902 169 4 0.0000000000000000e+00 -1.4672027013623673e+02 2.5311724882488399e+01 -1.7215741461868072e+02 0 0 0
5901 169 4 0.0000000000000000e+00 -1.4818420136616348e+02 2.2825250373867348e+01 -1.6262460267587852e+02 0 0 0
6174 177 4 0.0000000000000000e+00 -1.3336604245440770e+02 1.9839662047833134e+01 -1.6751506702809971e+02 0 0 0
6165 177 4 0.0000000000000000e+00 -9.1475868517224328e+01 2.9338416955715779e+01 -1.7298617830317241e+02 0 0 0
2823 81 2 0.0000000000000000e+00 -4.8710974145158318e+01 -1.0918225262828837e+02 -1.5847706042988162e+02 0 0 0
2824 81 2 0.0000000000000000e+00 -4.1098627159696896e+01 -1.0929253279232678e+02 -1.5105940870621174e+02 0 0 0
6539 187 4 0.0000000000000000e+00 -1.5115192761687956e+02 -9.4031138130205804e+01 -1.5160564441089906e+02 0 0 0
5555 159 3 0.0000000000000000e+00 -1.0407913173900099e+02 -1.0206791156637576e+02 -1.5908254281220931e+02 0 0 0
6307 181 4 0.0000000000000000e+00 -6.2045231581083634e+01 -9.9166104909125110e+01 -1.5928755189892573e+02 0 0 0
6305 181 4 0.0000000000000000e+00 -4.4574782220617394e+01 -9.9607136727084210e+01 -1.5693284440496788e+02 0 0 0
6304 181 3 0.0000000000000000e+00 -3.4430123943438545e+01 -9.9145698183864781e+01 -1.5706683364376269e+02 0 0 0
6540 187 4 0.0000000000000000e+00 -1.5456723075835367e+02 -8.8885651180212108e+01 -1.6014677704357780e+02 0 0 0
2803 81 2 0.0000000000000000e+00 -1.3382095562703071e+02 -8.1037789551156280e+01 -1.6072504654803240e+02 0 0 0
6538 187 4 0.0000000000000000e+00 -1.4407928182064813e+02 -9.1465938735774088e+01 -1.5832856313898361e+02 0 0 0
1383 40 1 0.0000000000000000e+00 -1.0913321214145914e+02 -9.2108278079676481e+01 -1.5598353604858212e+02 0 0 0
6308 181 4 0.0000000000000000e+00 -6.3279591311707811e+01 -8.8856328079298336e+01 -1.5835479603901632e+02 0 0 0
6309 181 4 0.0000000000000000e+00 -6.0121742955149280e+01 -8.3082190501654480e+01 -1.5148327312619099e+02 0 0 0
5079 146 3 0.0000000000000000e+00 -4.1068542371388801e+01 -8.0241652365857107e+01 -1.5723013548894005e+02 0 0 0
2802 81 2 0.0000000000000000e+00 -1.3292042351206968e+02 -7.2086997483556317e+01 -1.5609614061472800e+02 0 0 0
1640 47 2 0.0000000000000000e+00 -5.4987521909232264e+01 -7.1755582995841436e+01 -1.5349145765188655e+02 0 0 0
5080 146 4 0.0000000000000000e+00 -3.2733936436906660e+01 -7.6269791518987645e+01 -1.5370606403766797e+02 0 0 0
5081 146 4 0.0000000000000000e+00 -2.5277142340995933e+01 -7.0373660307457314e+01 -1.5130869545086813e+02 0 0 0
2801 81 2 0.0000000000000000e+00 -1.3058965447376852e+02 -6.2817981446077596e+01 -1.5245288772359629e+02 0 0 0
5547 159 4 0.0000000000000000e+00 -6.0035154427970070e+01 -5.6426276759962370e+01 -1.5898943019016681e+02 0 0 0
1639 47 2 0.0000000000000000e+00 -6.0082182585550704e+01 -6.4492844614003729e+01 -1.4855912371430790e+02 0 0 0
5082 146 4 0.0000000000000000e+00 -2.2982846562372902e+01 -6.1108352653546234e+01 -1.4909806416920910e+02 0 0 0
6531 187 4 0.0000000000000000e+00 -1.3778503754944828e+02 -4.5811182205574497e+01 -1.5531616144365273e+02 0 0 0
6530 187 4 0.0000000000000000e+00 -1.3252577047470163e+02 -4.0000227877688147e+01 -1.4991046935161344e+02 0 0 0
5546 159 4 0.0000000000000000e+00 -5.8668060614496298e+01 -4.6570094976741046e+01 -1.5828301830824466e+02 0 0 0
5545 159 4 0.0000000000000000e+00 -6.0020461743571595e+01 -4.7062308205282420e+01 -1.4873021596917357e+02 0 0 0
1539 44 2 0.0000000000000000e+00 -1.1636921043788406e+02 -2.4491633411587710e+01 -1.5540709711260516e+02 0 0 0
5886 169 4 0.0000000000000000e+00 -9.5073748609482550e+01 -2.6862682205873792e+01 -1.5757665259221457e+02 0 0 0
5887 169 4 0.0000000000000000e+00 -1.0122179362755313e+02 -3.0456765766987765e+01 -1.5027137413605564e+02 0 0 0
5885 169 4 0.0000000000000000e+00 -8.5148288489062963e+01 -2.6432596777139480e+01 -1.5775187991307658e+02 0 0 0
6245 179 4 0.0000000000000000e+00 -7.2415049477550397e+01 -3.5045518035255107e+01 -1.5666269019199720e+02 0 0 0
1366 40 2 0.0000000000000000e+00 -4.0995129482358188e+01 -3.4848227523742352e+01 -1.5983400421109556e+02 0 0 0
1538 44 2 0.0000000000000000e+00 -1.2380382867824774e+02 -2.2261703628878028e+01 -1.4824156986615083e+02 0 0 0
1540 44 2 0.0000000000000000e+00 -1.0687842570977101e+02 -2.3458493271336337e+01 -1.5740629660160283e+02 0 0 0
5884 169 3 0.0000000000000000e+00 -8.2400089736251729e+01 -1.7576542994962207e+01 -1.5569458120712346e+02 0 0 0
2934 84 2 0.0000000000000000e+00 -1.5343423407160043e+02 2.2133676579931150e+00 -1.6079441297313238e+02 0 0 0
2933 84 2 0.0000000000000000e+00 -1.5231604910448903e+02 -3.5961656259393071e+00 -1.5239151405325785e+02 0 0 0
2517 72 1 0.0000000000000000e+00 -1.1781728286210053e+02 -2.4959600836176068e+00 -1.5464633576934310e+02 0 0 0
5912 169 3 0.0000000000000000e+00 -1.2835242498541427e+02 1.2477825865355958e-01 -1.5314299730448644e+02 0 0 0
2516 72 2 0.0000000000000000e+00 -1.0846845076246852e+02 -4.0584408044704583e+00 -1.5482089302362868e+02 0 0 0
5883 169 4 0.0000000000000000e+00 -8.9697263417227362e+01 -1.0586562804681686e+01 -1.5513221867223501e+02 0 0 0
5882 169 4 0.0000000000000000e+00 -9.7926662045256066e+01 -6.1994100100198981e+00 -1.5893811711652907e+02 0 0 0
2515 72 2 0.0000000000000000e+00 -1.0118066594919983e+02 -1.8521493173913033e+00 -1.4848744532948621e+02 0 0 0
6355 182 4 0.0000000000000000e+00 -6.8022511256666050e+01 -1.4620990551679869e+00 -1.5991759182561557e+02 0 0 0
6187 177 4 0.0000000000000000e+00 -1.7736071014308203e+02 1.2701602515253263e+01 -1.5994316308693482e+02 0 0 0
3921 113 4 0.0000000000000000e+00 -1.7914045826231546e+02 6.7119208576532161e+00 -1.4754082815944298e+02 0 0 0
6188 177 4 0.0000000000000000e+00 -1.6871878995307335e+02 9.7607439368390203e+00 -1.5570097256140724e+02 0 0 0
5908 169 4 0.0000000000000000e+00 -1.5981510451070471e+02 1.6417924034952158e+01 -1.5115087690776960e+02 0 0 0
6189 177 4 0.0000000000000000e+00 -1.6440549445584196e+02 5.9321960792689783e+00 -1.4784438935890188e+02 0 0 0
2935 84 2 0.0000000000000000e+00 -1.5434187579877653e+02 1.1998837126207730e+01 -1.5971874043128577e+02 0 0 0
5909 169 4 0.0000000000000000e+00 -1.5087157119224594e+02 1.1678490173381133e+01 -1.5063516099051643e+02 0 0 0
5911 169 4 0.0000000000000000e+00 -1.3579401443750962e+02 2.9018801202245377e+00 -1.5953480814621608e+02 0 0 0
5910 169 4 0.0000000000000000e+00 -1.4320529828658897e+02 6.6555206850016146e+00 -1.5401136593296306e+02 0 0 0
5881 169 4 0.0000000000000000e+00 -9.5431095162730216e+01 3.4261386856944189e+00 -1.6038819690276387e+02 0 0 0
2512 72 2 0.0000000000000000e+00 -8.9951021063405193e+01 1.4917866210775518e+01 -1.4953566379645383e+02 0 0 0
6361 182 4 0.0000000000000000e+00 -7.8667181969781140e+01 1.4015695714147800e+01 -1.4825683137390783e+02 0 0 0
6356 182 4 0.0000000000000000e+00 -6.4979322475584112e+01 3.3596161225399617e+00 -1.5210211572537739e+02 0 0 0
6161 177 4 0.0000000000000000e+00 -7.3467736728648433e+01 6.7157439734312883e+00 -1.5757742936392088e+02 0 0 0
4933 141 4 0.0000000000000000e+00 -3.8093284362221937e+01 5.5620049020638076e+00 -1.5453125560156093e+02 0 0 0
4932 141 3 0.0000000000000000e+00 -4.3854010717412336e+01 1.2557356726449170e+01 -1.5155084346578707e+02 0 0 0
5907 169 4 0.0000000000000000e+00 -1.6637647183878394e+02 2.3114479356908458e+01 -1.5502145752733364e+02 0 0 0
5900 169 4 0.0000000000000000e+00 -1.5292733956019040e+02 2.7134665013029064e+01 -1.5513668902717288e+02 0 0 0
6173 177 4 0.0000000000000000e+00 -1.2700815559125111e+02 1.9818487466718409e+01 -1.5903380006205637e+02 0 0 0
6172 177 4 0.0000000000000000e+00 -1.1901396820100024e+02 2.1574201602030595e+01 -1.5269017081433066e+02 0 0 0
2510 72 1 0.0000000000000000e+00 -7.6662115373672535e+01 2.6112997014581492e+01 -1.5696043499937630e+02 0 0 0
2511 72 2 0.0000000000000000e+00 -8.6556092788627282e+01 2.2903911285973276e+01 -1.5659283845930369e+02 0 0 0
6359 182 4 0.0000000000000000e+00 -7.1605625392314550e+01 2.9034423869822074e+01 -1.4864683856206810e+02 0 0 0
3186 92 2 0.0000000000000000e+00 -5.1681803548901314e+01 1.9503152506427469e+01 -1.5890140844350063e+02 0 0 0
3187 92 2 0.0000000000000000e+00 -4.4544253132938273e+01 2.3234109333583032e+01 -1.5313826336890071e+02 0 0 0
3377 97 2 0.0000000000000000e+00 -2.4274733638753414e+01 1.7402059872900747e+01 -1.5274977236346311e+02 0 0 0
3378 97 1 0.0000000000000000e+00 -3.3661865341894845e+01 1.7737537111126748e+01 -1.4904944178667853e+02 0 0 0
2826 81 2 0.0000000000000000e+00 -2.5686279465793508e+01 -1.0174143434003807e+02 -1.4668637639730215e+02 0 0 0
2825 81 1 0.0000000000000000e+00 -3.4487740573046388e+01 -1.0290399221040829e+02 -1.4725163412602433e+02 0 0 0
1385 40 2 0.0000000000000000e+00 -1.0340711606683166e+02 -8.8293684522988400e+01 -1.3711346405048369e+02 0 0 0
1384 40 2 0.0000000000000000e+00 -1.0643711243075275e+02 -9.0367709751627672e+01 -1.4672093029528278e+02 0 0 0
6310 181 4 0.0000000000000000e+00 -5.3975040976727399e+01 -8.0288835518853958e+01 -1.4426426273945810e+02 0 0 0
1641 47 2 0.0000000000000000e+00 -5.0833137823358548e+01 -6.8328774508926529e+01 -1.4572701293238703e+02 0 0 0
6311 181 3 0.0000000000000000e+00 -5.0977273307096915e+01 -7.6763324191828673e+01 -1.3444996156448696e+02 0 0 0
1642 47 1 0.0000000000000000e+00 -4.3875446570610769e+01 -7.4034800423304063e+01 -1.4247320401645962e+02 0 0 0
1633 47 2 0.0000000000000000e+00 -1.0117486638017277e+02 -5.5918722825347153e+01 -1.3861221662489692e+02 0 0 0
1638 47 2 0.0000000000000000e+00 -6.3796428176260036e+01 -5.8988586213971516e+01 -1.4119406783811695e+02 0 0 0
1637 47 2 0.0000000000000000e+00 -7.1178967123428350e+01 -5.2598042029041657e+01 -1.3764180940434588e+02 0 0 0
1634 47 2 0.0000000000000000e+00 -9.3811424137432923e+01 -4.9773817272520844e+01 -1.4107603163457543e+02 0 0 0
1636 47 2 0.0000000000000000e+00 -7.6461632771325853e+01 -4.4228290836750261e+01 -1.3982058996913992e+02 0 0 0
1635 47 1 0.0000000000000000e+00 -8.5650852732731479e+01 -4.4219724595633984e+01 -1.4225423925770329e+02 0 0 0
5544 159 4 0.0000000000000000e+00 -6.0822870359434177e+01 -4.3686564547650427e+01 -1.3907476889866157e+02 0 0 0
6529 187 4 0.0000000000000000e+00 -1.3820948038966654e+02 -3.2633764107536564e+01 -1.4591109174003032e+02 0 0 0
1536 44 2 0.0000000000000000e+00 -1.3361237904445719e+02 -2.9683348736374928e+01 -1.3436912619127023e+02 0 0 0
5888 169 4 0.0000000000000000e+00 -1.0616961060806527e+02 -2.7151168871343053e+01 -1.4176785146557384e+02 0 0 0
6247 179 4 0.0000000000000000e+00 -7.5849647764903978e+01 -3.5101208259310447e+01 -1.3863074493858591e+02 0 0 0
6246 179 4 0.0000000000000000e+00 -7.1313119535701730e+01 -3.3365648101671134e+01 -1.4681468072934450e+02 0 0 0
804 23 2 0.0000000000000000e+00 -5.2928990558710908e+01 -3.6059708772877741e+01 -1.3742910748165133e+02 0 0 0
2080 60 2 0.0000000000000000e+00 -2.5566394571995097e+01 -3.1440949429848292e+01 -1.4593934974232457e+02 0 0 0
2931 84 2 0.0000000000000000e+00 -1.6116476255310408e+02 -1.2225488089770481e+01 -1.3587342906455766e+02 0 0 0
6528 187 3 0.0000000000000000e+00 -1.4029664509705469e+02 -2.3651503483023301e+01 -1.4046668389699664e+02 0 0 0
6527 187 4 0.0000000000000000e+00 -1.4233975984876659e+02 -1.4783999826039587e+01 -1.3643551035557635e+02 0 0 0
1537 44 1 0.0000000000000000e+00 -1.2946615338995841e+02 -2.3022024826082596e+01 -1.4026576081458148e+02 0 0 0
731 21 2 0.0000000000000000e+00 -1.2868851548670031e+02 -1.1697207104249230e+01 -1.3664368464793037e+02 0 0 0
732 21 1 0.0000000000000000e+00 -1.2229737211511637e+02 -1.9761060243884874e+01 -1.3472880552839001e+02 0 0 0
2079 60 2 0.0000000000000000e+00 -2.5445162075991583e+01 -2.3858580719431785e+01 -1.3842757349193431e+02 0 0 0
3923 113 4 0.0000000000000000e+00 -1.8141032349091174e+02 -7.9577963804863447e+00 -1.3421929613278371e+02 0 0 0
3922 113 4 0.0000000000000000e+00 -1.7976126641274661e+02 -1.6180231317051352e-01 -1.3962018906914855e+02 0 0 0
6190 177 4 0.0000000000000000e+00 -1.6439625908108681e+02 -2.6319034583162443e-01 -1.3973253969598829e+02 0 0 0
2932 84 2 0.0000000000000000e+00 -1.5717941910051934e+02 -6.2907035980391575e+00 -1.4333584572443226e+02 0 0 0
730 21 2 0.0000000000000000e+00 -1.3416129330429547e+02 -3.9776089441080105e+00 -1.3921371437127894e+02 0 0 0
5913 169 4 0.0000000000000000e+00 -1.2288786075001380e+02 1.0242299076298118e+00 -1.4503086661328115e+02 0 0 0
5914 169 4 0.0000000000000000e+00 -1.1598471869022784e+02 -5.6355998071431834e+00 -1.4236259948491249e+02 0 0 0
5915 169 4 0.0000000000000000e+00 -1.0666333130354397e+02 -7.5935754565841940e+00 -1.3910088352987131e+02 0 0 0
4929 141 4 0.0000000000000000e+00 -3.2668502012060245e+01 2.8593857831884111e+00 -1.3700597233985735e+02 0 0 0
729 21 2 0.0000000000000000e+00 -1.3932789770606666e+02 3.7582586321288134e+00 -1.3537751888633753e+02 0 0 0
728 21 2 0.0000000000000000e+00 -1.3652575087694370e+02 8.0620526119807341e+00 -1.4373194988480478e+02 0 0 0
727 21 2 0.0000000000000000e+00 -1.2717569870563074e+02 1.0431174168789704e+01 -1.4360707711996034e+02 0 0 0
5893 169 4 0.0000000000000000e+00 -1.2776872720528924e+02 5.2932411480488835e+00 -1.3524679213497069e+02 0 0 0
726 21 2 0.0000000000000000e+00 -1.1809436410797470e+02 1.4171949185905085e+01 -1.4428906473449075e+02 0 0 0
5894 169 4 0.0000000000000000e+00 -1.2949485519995199e+02 1.4991443030382589e+01 -1.3422848136643233e+02 0 0 0
725 21 1 0.0000000000000000e+00 -1.0808805827304185e+02 1.1561070416253703e+01 -1.4642337097777366e+02 0 0 0
2514 72 2 0.0000000000000000e+00 -9.3748457991933421e+01 3.1406149519802931e+00 -1.4535564914215334e+02 0 0 0
724 21 2 0.0000000000000000e+00 -9.8957294616712105e+01 1.3634429525763750e+01 -1.4393485107897581e+02 0 0 0
723 21 2 0.0000000000000000e+00 -9.3688535564418942e+01 1.5206134551764329e+01 -1.3499627644942950e+02 0 0 0
2513 72 2 0.0000000000000000e+00 -8.5480055465819248e+01 8.7762445756775751e+00 -1.4295410423488070e+02 0 0 0
6362 182 4 0.0000000000000000e+00 -7.7550279108025947e+01 1.2378832819307600e+01 -1.3876474131421790e+02 0 0 0
6357 182 4 0.0000000000000000e+00 -6.4822604636687828e+01 1.1991633349061617e+01 -1.4634661047901710e+02 0 0 0
4931 141 4 0.0000000000000000e+00 -4.8531153159585315e+01 6.4784261479181495e+00 -1.4434115023701276e+02 0 0 0
4930 141 4 0.0000000000000000e+00 -4.1754909804767344e+01 6.4436287800973586e+00 -1.3743013072781883e+02 0 0 0
3379 97 2 0.0000000000000000e+00 -3.6081410609155888e+01 1.5203430374430519e+01 -1.3992556598360522e+02 0 0 0