LAMMPS (5 Jun 2019)
Reading restart file ...
  restart file = 5 Jun 2019, LAMMPS = 5 Jun 2019
  restoring atom style full from restart
  orthogonal box = (-500 -500 -500) to (500 500 500)
  1 by 2 by 7 MPI processor grid
  restoring pair style lj/cut from restart
  restoring bond style hybrid from restart
  restoring angle style cosine from restart
  7000 atoms
  7256 bonds
  6600 angles
Finding 1-2 1-3 1-4 neighbors ...
  special bond factors lj:   0          1          1         
  special bond factors coul: 0          0          0         
  3 = max # of 1-2 neighbors
  4 = max # of 1-3 neighbors
  8 = max # of 1-4 neighbors
  16 = max # of special neighbors
  special bonds CPU = 0.00141911 secs
  read_restart CPU = 0.0127635 secs
Changing box ...
  orthogonal box = (-500 -500 -500) to (500 500 500)
  orthogonal box = (-500 -500 -500) to (500 500 500)
  orthogonal box = (-500 -500 -500) to (500 500 500)
Finding 1-2 1-3 1-4 neighbors ...
  special bond factors lj:   0          1          1         
  special bond factors coul: 0          0          0         
  3 = max # of 1-2 neighbors
  4 = max # of 1-3 neighbors
  8 = max # of 1-4 neighbors
  16848 = # of 1-3 neighbors before angle trim
  13200 = # of 1-3 neighbors after angle trim
  16 = max # of special neighbors
  special bonds CPU = 0.00129108 secs
1000 atoms in group rxnSites
Neighbor list info ...
  update every 1 steps, delay 1 steps, check yes
  max neighbors/atom: 2000, page size: 100000
  master list distance cutoff = 26.9
  ghost atom cutoff = 26.9
  binsize = 13.45, bins = 75 75 75
  2 neighbor lists, perpetual/occasional/extra = 1 1 0
  (1) pair lj/cut, perpetual
      attributes: half, newton on
      pair build: half/bin/newton
      stencil: half/bin/3d/newton
      bin: standard
  (2) fix bond/create/random, occasional, copy from (1)
      attributes: half, newton on
      pair build: copy
      stencil: none
      bin: none
Setting up Verlet run ...
  Unit style    : real
  Current step  : 300000000
  Time step     : 30
Per MPI rank memory allocation (min/avg/max) = 10.32 | 10.76 | 11.44 Mbytes
Step E_pair PotEng KinEng E_bond E_angle Temp Bonds 
300000000   -1296.9182    2246.5884    6491.2915   -492.70605    4036.2127    311.14356     7256 
301000000   -1325.9254    2252.5373    6425.9325   -495.04835    4073.5111    308.01074     7259 
302000000   -1303.6133    2149.0134    6505.6338   -491.44565    3944.0724    311.83102     7258 
303000000   -1309.9495    2135.0368    6403.3339   -449.13023    3894.1165    306.92754     7260 
304000000   -1300.8171     2169.182    6446.1176   -480.87361    3950.8727    308.97827     7262 
305000000   -1318.1441    2192.8644    6424.5549   -506.56228    4017.5708    307.94471     7263 
306000000    -1312.379    2174.3138    6450.4345   -509.60514     3996.298    309.18518     7260 
307000000   -1244.1143      2238.12    6490.9378   -528.07378     4010.308     311.1266     7264 
308000000   -1314.8461    2076.9659    6472.0198   -523.42234    3915.2344    310.21982     7255 
309000000    -1295.066    2227.5632    6435.0972   -453.82486     3976.454    308.45003     7261 
310000000   -1316.5013     2079.506    6351.1086   -548.49335    3944.5007    304.42425     7268 
311000000   -1326.0173    2271.3281    6486.8428   -438.61602    4035.9615    310.93032     7263 
312000000   -1325.2445    2155.7331    6473.7193   -523.19689    4004.1746    310.30128     7263 
313000000   -1357.8872    2173.8452    6487.9861   -486.02986    4017.7623    310.98513     7261 
314000000   -1342.6221     2140.225    6344.7713   -515.61526    3998.4623    304.12049     7262 
315000000   -1315.4696    2166.8715    6388.4722   -495.35714    3977.6982    306.21518     7261 
316000000   -1369.3308    2018.2893    6467.7584   -559.12217    3946.7423    310.01556     7267 
317000000   -1321.4966    2133.3562    6416.6247   -497.63289    3952.4857     307.5646     7265 
318000000   -1363.4208    2105.4974    6524.4719   -507.42566    3976.3438    312.73398     7264 
319000000   -1318.0576    2117.9809    6450.5738   -561.67836    3997.7169    309.19186     7271 
320000000   -1301.4452    2155.1141    6495.4288   -529.52979     3986.089    311.34187     7271 
321000000   -1354.7998    2067.7849    6494.8467   -556.90542    3979.4902    311.31397     7268 
322000000   -1296.3993     2080.377    6525.6648   -550.63534    3927.4116    312.79116     7271 
323000000    -1325.236    2186.0399    6456.3443    -507.3739    4018.6498    309.46845     7269 
324000000   -1284.0279    2222.2715    6474.1538   -500.82806    4007.1274    310.32211     7267 
325000000   -1276.3752     2127.579    6487.5232   -477.01544    3880.9697    310.96293     7264 
326000000   -1259.1601    2209.1861    6394.9602   -507.98997    3976.3361    306.52617     7263 
327000000   -1325.7364    2259.1492    6401.9792   -480.96833    4065.8538     306.8626     7264 
328000000   -1313.5453    2157.7632    6486.3746   -530.92218    4002.2307    310.90788     7262 
329000000    -1337.812    2149.5155    6553.8788   -557.63702    4044.9646    314.14352     7262 
330000000   -1317.3645    2403.3125     6428.747   -412.84704     4133.524    308.14565     7257 
331000000    -1315.059    2258.6653    6339.1328   -443.17104    4016.8953    303.85022     7255 
332000000   -1277.5561    2204.8578    6425.0969   -448.90971    3931.3237    307.97069     7255 
333000000   -1292.9115    2223.0005    6506.6684   -457.67606    3973.5881    311.88061     7253 
334000000   -1322.3944    2218.9639    6416.7245   -454.30935    3995.6677    307.56938     7256 
335000000   -1272.9836    2219.3661    6359.0951   -487.09898    3979.4487    304.80706     7255 
336000000   -1304.6418    2246.5829     6406.401   -448.00082    3999.2255    307.07455     7253 
337000000   -1292.2449    2214.9639     6522.513   -457.39911    3964.6079    312.64008     7251 
338000000   -1250.7022    2174.0242    6403.3218   -485.63651    3910.3629    306.92696     7254 
339000000   -1309.5259    2146.4622    6440.9827    -517.2071    3973.1952    308.73214     7258 
340000000   -1329.5463    2239.7854    6409.4287   -501.47285    4070.8045    307.21967     7259 
341000000   -1284.8744    2155.2904    6475.0836    -506.1575    3946.3223    310.36668     7260 
342000000   -1319.5832    2217.5303    6410.7582   -475.80428    4012.9178     307.2834     7260 
343000000   -1319.1912    2186.0037    6468.7198   -515.38897    4020.5838    310.06164     7260 
344000000   -1240.7639    2319.5937    6420.9529   -470.27732     4030.635    307.77206     7257 
345000000   -1326.8485    2196.5174    6474.4435     -478.481     4001.847    310.33599     7259 
346000000   -1318.6974    2150.2206    6550.2579   -527.57191    3996.4899    313.96996     7261 
347000000   -1332.0381    2070.9634    6434.6313   -556.99836    3959.9998     308.4277     7264 
348000000   -1271.1755     2158.626    6486.5304   -526.97602    3956.7776    310.91535     7263 
349000000     -1308.36    2297.3487    6541.3533   -408.13295    4013.8416    313.54315     7260 
350000000   -1318.3681    2227.3566    6485.6083   -487.03789    4032.7626    310.87115     7262 
351000000    -1309.054    2218.1037    6510.4893   -411.93903    3939.0967    312.06376     7259 
352000000   -1289.1533    2233.9323    6452.0856   -447.82627    3970.9119    309.26432     7259 
353000000   -1308.8673    2339.8586    6464.4266   -442.11953    4090.8454    309.85586     7255 
354000000   -1299.6398    2215.2598    6393.7865   -435.49553    3950.3951    306.46991     7257 
355000000   -1322.4493    2148.3404    6524.7855   -463.27732    3934.0671    312.74901     7261 
356000000   -1339.1415    2200.2676    6523.4931   -471.38735    4010.7965    312.68706     7265 
357000000   -1311.2277    2066.2095    6511.7743   -524.46349    3901.9008    312.12535     7264 
358000000   -1329.9213    2151.4104    6452.8189   -478.99945    3960.3312    309.29947     7260 
359000000   -1303.8674    2237.6066    6554.1275   -454.11247    3995.5864    314.15544     7263 
360000000   -1299.2614    2160.6935    6528.1001   -517.78781    3977.7427    312.90789     7265 
361000000   -1303.8056    2086.9367    6504.2298   -540.00319    3930.7454    311.76373     7261 
362000000   -1296.8561    2165.7668    6492.9364   -483.37236    3945.9952    311.22241     7261 
363000000   -1233.3753    2192.9825    6391.0502   -522.93285    3949.2907    306.33875     7264 
364000000   -1277.2228    2314.3798    6546.6255   -443.56086    4035.1634    313.79586     7263 
365000000   -1267.5536    2249.3274     6502.633   -496.42075    4013.3017    311.68719     7260 
366000000   -1258.3152    2258.0446    6394.6231   -515.29697    4031.6568       306.51     7268 
367000000   -1297.5048    2290.9918    6596.0198   -433.81756    4022.3142    316.16344     7261 
368000000   -1283.3211    2238.5506    6504.2227   -456.79937    3978.6712    311.76339     7259 
369000000   -1257.0971    2313.9249    6426.4002   -470.19226    4041.2143    308.03316     7259 
370000000   -1299.6886    2384.4192    6428.3763   -401.32519    4085.4329    308.12788     7256 
371000000   -1274.0695    2221.5315    6421.5922   -465.48864    3961.0896     307.8027     7260 
372000000   -1293.6487    2143.8236    6454.0145   -502.55165     3940.024    309.35678     7259 
373000000   -1350.9493    2179.9624     6419.492   -508.20285    4039.1146    307.70203     7261 
374000000   -1305.9692    2289.5646    6540.7687   -458.38265    4053.9164    313.51512     7260 
375000000   -1286.6415    2268.0458    6459.3942   -466.39006    4021.0774    309.61465     7259 
376000000   -1291.8535     2152.561    6591.6113   -518.06714    3962.4817    315.95214     7262 
377000000   -1328.0297    2245.8345    6584.2978   -504.95666    4078.8209    315.60158     7263 
378000000    -1352.926    2106.3009    6535.2774    -531.0438    3990.2706    313.25191     7260 
379000000   -1346.5713    2202.3531    6497.3314   -456.87946    4005.8039    311.43307     7259 
380000000   -1278.4288    2208.3698    6425.0528   -531.17006    4017.9686    307.96858     7263 
381000000   -1335.2293    2222.9138    6447.4974   -484.40268    4042.5458     309.0444     7256 
382000000   -1335.3708    2156.5403    6404.6181   -511.61772    4003.5289    306.98909     7262 
383000000   -1309.1609    2203.4207    6572.4874   -486.86378    3999.4454    315.03548     7261 
384000000   -1292.2226    2206.0855    6435.4029   -480.10576    3978.4139    308.46468     7259 
385000000   -1308.2178    2251.7872    6383.0694   -478.20675    4038.2118    305.95621     7254 
386000000   -1297.5287    2272.7503    6594.7665   -527.78129    4098.0603    316.10337     7259 
387000000   -1321.2556    2280.0439    6564.0035   -455.46026    4056.7597    314.62883     7261 
388000000   -1310.0246    2209.0996    6417.1088   -511.15831    4030.2826     307.5878     7263 
389000000   -1314.2104    2170.1317     6467.581   -479.65105    3963.9932    310.00706     7261 
390000000    -1376.634    2064.5091    6440.5395   -572.34601    4013.4891    308.71089     7258 
391000000   -1329.1229    2209.2595    6497.2737   -481.95408    4020.3365     311.4303     7263 
392000000   -1340.3905    2197.6334    6475.5911   -484.77052    4022.7944      310.391     7262 
393000000   -1329.8332    2181.8216    6551.0978   -528.79363    4040.4484    314.01022     7266 
394000000   -1312.4129    2194.5711    6389.0313   -530.89729    4037.8813    306.24198     7264 
395000000   -1302.7168    2303.4283    6466.3569   -445.55201    4051.6971    309.94838     7258 
396000000   -1331.8978     2179.077    6530.2728   -443.52695    3954.5017    313.01203     7264 
397000000   -1308.6796    2258.8049    6393.6372   -509.15814    4076.6426    306.46275     7259 
398000000    -1306.278    2280.6767    6397.2202   -466.71504    4053.6698    306.63449     7258 
399000000   -1335.5073    2160.6157    6495.6514   -502.29503     3998.418    311.35254     7265 
400000000   -1341.7615    2155.8114    6462.3953   -521.86495    4019.4378     309.7585     7266 
Loop time of 19461.6 on 14 procs for 100000000 steps with 7000 atoms

Performance: 13318.507 ns/day, 0.002 hours/ns, 5138.313 timesteps/s
99.5% CPU use with 14 MPI tasks x no OpenMP threads

MPI task timing breakdown:
Section |  min time  |  avg time  |  max time  |%varavg| %total
---------------------------------------------------------------
Pair    | 3035.3     | 3468.4     | 3949.2     | 458.9 | 17.82
Bond    | 1123.9     | 1146       | 1178       |  59.2 |  5.89
Neigh   | 3317.1     | 3347.5     | 3382.7     |  38.3 | 17.20
Comm    | 5782.7     | 6242.5     | 6774.5     | 330.4 | 32.08
Output  | 0.50133    | 0.50168    | 0.502      |   0.0 |  0.00
Modify  | 3901.2     | 3990.6     | 4651.9     | 293.3 | 20.51
Other   |            | 1266       |            |       |  6.51

Nlocal:    500 ave 539 max 440 min
Histogram: 1 0 0 1 1 4 2 3 1 1
Nghost:    585.929 ave 786 max 357 min
Histogram: 1 2 0 2 2 1 1 3 1 1
Neighs:    4874.36 ave 6031 max 3229 min
Histogram: 1 1 0 0 2 3 3 1 1 2

Total # of neighbors = 68241
Ave neighs/atom = 9.74871
Ave special neighs/atom = 7.388
Neighbor list builds = 6166621
Dangerous builds = 0
System init for write_restart ...
System init for write_data ...
Total wall time: 5:24:21
