LAMMPS (5 Jun 2019)
Reading restart file ...
  restart file = 5 Jun 2019, LAMMPS = 5 Jun 2019
  restoring atom style full from restart
  orthogonal box = (-500 -500 -500) to (500 500 500)
  1 by 2 by 7 MPI processor grid
  restoring pair style lj/cut from restart
  restoring bond style hybrid from restart
  restoring angle style cosine from restart
  7000 atoms
  7256 bonds
  6600 angles
Finding 1-2 1-3 1-4 neighbors ...
  special bond factors lj:   0          1          1         
  special bond factors coul: 0          0          0         
  3 = max # of 1-2 neighbors
  4 = max # of 1-3 neighbors
  8 = max # of 1-4 neighbors
  16 = max # of special neighbors
  special bonds CPU = 0.00124067 secs
  read_restart CPU = 0.0111473 secs
Changing box ...
  orthogonal box = (-500 -500 -500) to (500 500 500)
  orthogonal box = (-500 -500 -500) to (500 500 500)
  orthogonal box = (-500 -500 -500) to (500 500 500)
Finding 1-2 1-3 1-4 neighbors ...
  special bond factors lj:   0          1          1         
  special bond factors coul: 0          0          0         
  3 = max # of 1-2 neighbors
  4 = max # of 1-3 neighbors
  8 = max # of 1-4 neighbors
  16848 = # of 1-3 neighbors before angle trim
  13200 = # of 1-3 neighbors after angle trim
  16 = max # of special neighbors
  special bonds CPU = 0.00104334 secs
1000 atoms in group rxnSites
Neighbor list info ...
  update every 1 steps, delay 1 steps, check yes
  max neighbors/atom: 2000, page size: 100000
  master list distance cutoff = 26.9
  ghost atom cutoff = 26.9
  binsize = 13.45, bins = 75 75 75
  2 neighbor lists, perpetual/occasional/extra = 1 1 0
  (1) pair lj/cut, perpetual
      attributes: half, newton on
      pair build: half/bin/newton
      stencil: half/bin/3d/newton
      bin: standard
  (2) fix bond/create/random, occasional, copy from (1)
      attributes: half, newton on
      pair build: copy
      stencil: none
      bin: none
Setting up Verlet run ...
  Unit style    : real
  Current step  : 300000000
  Time step     : 30
Per MPI rank memory allocation (min/avg/max) = 10.32 | 10.76 | 11.44 Mbytes
Step E_pair PotEng KinEng E_bond E_angle Temp Bonds 
300000000   -1296.9182    2246.5884    6491.2915   -492.70605    4036.2127    311.14356     7256 
301000000   -1312.9456    2283.6392    6457.6168   -450.30442    4046.8893    309.52945     7251 
302000000   -1310.0135    2356.0789    6457.7185   -359.96467    4026.0571    309.53433     7250 
303000000    -1315.813    2285.2011    6452.4651   -469.32596    4070.3401    309.28251     7258 
304000000   -1339.2014    2224.3572    6465.7779   -456.91645    4020.4751    309.92063     7255 
305000000   -1324.0416    2199.4574    6530.1334   -452.40951    3975.9086    313.00535     7255 
306000000   -1335.7141    2329.7191    6419.7318   -412.89054    4078.3238    307.71353     7250 
307000000   -1302.0751    2317.6574    6506.0361   -423.88862    4043.6212    311.85031     7259 
308000000   -1363.7906     2159.327    6455.4923   -514.14426    4037.2618    309.42762     7262 
309000000   -1328.2861    2153.7837    6345.7144   -479.06656    3961.1364    304.16569     7265 
310000000   -1362.3259    2173.9809    6443.8626   -532.96242    4069.2692    308.87018     7262 
311000000   -1340.2705    2114.1947    6471.0331   -531.83485    3986.3001    310.17253     7264 
312000000   -1346.4571    2301.2388    6464.1236   -446.99663    4094.6926    309.84134     7263 
313000000   -1323.7559    2082.5477    6463.3755   -548.74956    3955.0532    309.80548     7268 
314000000   -1352.4776    2123.7514    6396.8032   -494.97445    3971.2034     306.6145     7266 
315000000    -1339.692    2243.1536    6585.5113    -404.2555    3987.1011    315.65974     7260 
316000000   -1393.9418     2215.964    6428.9974   -431.28928    4041.1951    308.15765     7256 
317000000   -1416.6058    2009.4751    6573.3009   -554.04068    3980.1216    315.07447     7265 
318000000   -1382.1802     2080.326    6446.9046   -555.20516    4017.7114    309.01598     7263 
319000000   -1344.8336    2128.0815    6434.8081   -478.41556    3951.3307    308.43617     7263 
320000000   -1358.6709     2112.222    6488.8541   -525.99949    3996.8924    311.02673     7265 
321000000   -1390.8421    2141.9227    6469.5919   -495.10324     4027.868    310.10344     7266 
322000000    -1358.141    2262.1791    6398.1595   -440.60477    4060.9249    306.67951     7257 
323000000    -1382.508    2192.0372    6353.4404   -474.51149    4049.0567    304.53602     7259 
324000000   -1363.9434    2116.1506    6401.5999   -536.85382    4016.9478    306.84442     7262 
325000000   -1311.7257    2150.1161    6551.1346   -500.35585    3962.1977    314.01199     7262 
326000000   -1321.3055    2067.4589    6382.1231   -586.87104    3975.6354    305.91085     7263 
327000000   -1318.7782    2163.7562    6417.8222   -517.15567      3999.69    307.62199     7265 
328000000   -1330.1674     2188.286    6453.4055   -513.24122    4031.6946    309.32759     7269 
329000000   -1352.7629    2214.8205    6486.0848   -451.43943    4019.0229    310.89399     7268 
330000000   -1358.0924    2169.3866    6403.1582   -501.33072    4028.8097    306.91912     7267 
331000000    -1393.098    2137.8849    6438.8792   -468.19476    3999.1777    308.63131     7263 
332000000    -1320.661    2190.3753    6457.8708   -561.61703    4072.6533    309.54162     7268 
333000000    -1333.801    2127.1824     6445.126   -579.87054    4040.8539    308.93074     7265 
334000000   -1308.6394    2126.7486    6522.0163    -558.7794    3994.1674    312.61628     7265 
335000000   -1297.7607    2236.1156     6466.776   -507.42246    4041.2987    309.96847     7266 
336000000   -1325.7695    2017.6868    6462.0476   -569.19791    3912.6543    309.74183     7268 
337000000   -1282.1405    2220.4084    6533.4729   -538.24231    4040.7913    313.16542     7270 
338000000   -1325.1237    2255.8361    6447.5745   -541.54679    4122.5065     309.0481     7264 
339000000   -1316.5103    2173.7951    6534.6182   -492.59362     3982.899    313.22032     7262 
340000000   -1349.7666    2128.2106    6448.3646   -541.88962    4019.8669    309.08597     7268 
341000000   -1310.2771    2248.8952    6543.7035   -507.32793    4066.5003     313.6558     7268 
342000000   -1276.3218    2233.0478    6490.7514   -517.33517    4026.7048    311.11767     7266 
343000000   -1338.6992    2181.0274    6543.2947   -501.08971    4020.8162     313.6362     7264 
344000000   -1327.5464    2245.3252    6435.1403   -447.86683    4020.7384    308.45209     7263 
345000000   -1293.1244    2104.7543     6478.336   -550.03681    3947.9155    310.52257     7262 
346000000   -1270.6269    2309.9746    6507.1694   -479.30959     4059.911    311.90463     7262 
347000000   -1296.8648    2225.8119    6527.3772   -492.19459    4014.8713    312.87324     7262 
348000000   -1288.7374    2231.6866    6540.2878   -481.09796     4001.522    313.49207     7267 
349000000   -1306.9556    2216.1121    6543.3984   -532.11406    4055.1818    313.64117     7265 
350000000   -1308.5003    2283.9659    6465.4644   -502.60216    4095.0684     309.9056     7268 
351000000   -1343.0055    2162.9774    6520.8161   -510.71013     4016.693    312.55875     7261 
352000000   -1338.6725    2259.5273    6436.3156   -479.83781    4078.0376    308.50843     7263 
353000000   -1359.7626    2175.6323    6398.0728   -436.38757    3971.7825    306.67536     7261 
354000000   -1324.2918    2268.3518    6457.6182   -491.38264    4084.0262    309.52951     7263 
355000000   -1365.0084    2144.7963    6416.4436    -467.3781    3977.1828    307.55591     7259 
356000000   -1404.9666    2104.9606    6338.2418   -454.71171    3964.6389    303.80751     7262 
357000000   -1403.1573    2105.6686    6405.7576   -507.58575    4016.4116    307.04371     7265 
358000000   -1406.9591    2144.5724    6272.8993   -468.35625    4019.8877    300.67549     7259 
359000000   -1394.7356    2100.1499    6483.2808   -512.41149    4007.2971    310.75959     7259 
360000000   -1389.2941    2236.6402    6473.5099   -433.05036    4058.9847    310.29124     7258 
361000000   -1360.2242    2119.8352    6364.1451   -504.35034    3984.4098    305.04912     7260 
362000000   -1360.1006    2202.7073     6402.754   -456.93924    4019.7471    306.89974     7259 
363000000   -1337.4674    2251.9047    6410.5544   -467.83787      4057.21    307.27363     7258 
364000000    -1355.411    2224.6815    6494.1702    -387.0839    3967.1763    311.28155     7259 
365000000   -1337.0846    2231.9666    6533.9864   -447.20698    4016.2582    313.19003     7256 
366000000   -1335.7438    2224.7188    6455.0271   -482.54995    4043.0125    309.40532     7257 
367000000   -1381.5429    2189.7286    6560.6266   -487.72569    4058.9972    314.46696     7258 
368000000   -1342.3533    2198.6296    6458.7124    -507.5346    4048.5175    309.58196     7261 
369000000   -1323.8369    2129.5254    6573.9982   -570.82768      4024.19    315.10789     7262 
370000000   -1387.4454    2175.4605    6495.4256   -524.29328    4087.1992    311.34172     7267 
371000000   -1305.5385    2301.6107    6483.5487   -480.21392    4087.3631    310.77243     7263 
372000000   -1294.4036    2170.6811     6461.476   -485.69986    3950.7845    309.71443     7257 
373000000   -1333.9325    2197.7477     6397.628   -518.48541    4050.1655    306.65404     7257 
374000000    -1263.583     2203.381    6467.5641   -512.20056    3979.1646    310.00625     7256 
375000000   -1296.9757    2250.1015    6536.7102   -433.35474     3980.432    313.32059     7257 
376000000   -1296.9628    2324.2762    6400.0241   -421.77919    4043.0182    306.76889     7259 
377000000   -1288.0313    2216.6434     6378.546   -446.78981    3951.4644    305.73939     7257 
378000000   -1272.5289    2291.9218    6451.8076    -445.6345    4010.0852      309.251     7259 
379000000   -1307.8067    2342.7628     6509.915   -483.53851     4134.108    312.03623     7261 
380000000   -1308.8968    2212.2299    6436.3417   -487.93619    4009.0629    308.50968     7262 
381000000   -1366.5549    2118.5372    6517.9927   -539.48339    4024.5754    312.42341     7263 
382000000   -1370.6256    2153.1246    6449.8168   -473.13162    3996.8818    309.15558     7265 
383000000   -1340.5928    2233.3621    6469.7872   -479.27275    4053.2277    310.11281     7261 
384000000   -1335.4706    2145.5937    6471.9124   -543.45304    4024.5173    310.21467     7264 
385000000   -1294.4115    2190.6758    6448.0451   -478.31899    3963.4064    309.07065     7258 
386000000   -1311.8651    2260.7021    6468.9435   -491.71329    4064.2805    310.07237     7261 
387000000   -1291.5652    2194.1465    6438.2279   -487.14027    3972.8519    308.60009     7264 
388000000    -1290.282     2270.048    6515.7973   -508.78859    4069.1186    312.31818     7267 
389000000   -1300.9958    2154.6092    6508.5731   -545.98838    4001.5933    311.97191     7263 
390000000   -1292.1727    2191.5705    6479.6099   -540.00535    4023.7485    310.58363     7266 
391000000   -1307.5761    2178.9925    6444.3659   -541.22495    4027.7936     308.8943     7264 
392000000   -1256.2871    2157.0124    6498.7016   -520.65778    3933.9573    311.49875     7265 
393000000   -1254.8357    2351.9092    6520.9674    -408.1346    4014.8796      312.566     7262 
394000000    -1278.901    2221.2963    6425.0508   -484.36936    3984.5666    307.96848     7263 
395000000   -1286.4587    2247.9814    6602.5716   -485.96107    4020.4012    316.47749     7264 
396000000   -1289.4764    2198.5978    6526.0922   -489.39416    3977.4683    312.81164     7259 
397000000   -1272.4604    2220.3965    6451.8812   -509.09903     4001.956    309.25453     7263 
398000000   -1262.4512    2255.6055    6493.3358   -523.11733    4041.1741    311.24155     7260 
399000000   -1280.0997    2230.0767    6433.7596   -465.68763     3975.864    308.38592     7260 
400000000   -1297.7628    2119.6928    6629.8551   -525.73222    3943.1878    317.78526     7261 
Loop time of 17775.1 on 14 procs for 100000000 steps with 7000 atoms

Performance: 14582.218 ns/day, 0.002 hours/ns, 5625.856 timesteps/s
99.5% CPU use with 14 MPI tasks x no OpenMP threads

MPI task timing breakdown:
Section |  min time  |  avg time  |  max time  |%varavg| %total
---------------------------------------------------------------
Pair    | 2946.4     | 3314.2     | 3639.8     | 398.6 | 18.65
Bond    | 1063.8     | 1085.9     | 1109.2     |  44.5 |  6.11
Neigh   | 3125.8     | 3155.4     | 3207.7     |  42.8 | 17.75
Comm    | 5182.9     | 5668.7     | 6313.7     | 444.3 | 31.89
Output  | 0.42879    | 0.42891    | 0.42898    |   0.0 |  0.00
Modify  | 3660.1     | 3695.8     | 3731.5     |  39.0 | 20.79
Other   |            | 854.6      |            |       |  4.81

Nlocal:    500 ave 532 max 469 min
Histogram: 1 0 3 2 1 1 4 1 0 1
Nghost:    605.643 ave 808 max 461 min
Histogram: 3 3 0 2 0 2 1 1 0 2
Neighs:    4741.36 ave 5615 max 4166 min
Histogram: 3 1 2 1 2 1 2 1 0 1

Total # of neighbors = 66379
Ave neighs/atom = 9.48271
Ave special neighs/atom = 7.36943
Neighbor list builds = 6166645
Dangerous builds = 0
System init for write_restart ...
System init for write_data ...
Total wall time: 4:56:15
