LAMMPS (5 Jun 2019)
Reading restart file ...
  restart file = 5 Jun 2019, LAMMPS = 5 Jun 2019
  restoring atom style full from restart
  orthogonal box = (-500 -500 -500) to (500 500 500)
  1 by 2 by 7 MPI processor grid
  restoring pair style lj/cut from restart
  restoring bond style hybrid from restart
  restoring angle style cosine from restart
  7000 atoms
  7256 bonds
  6600 angles
Finding 1-2 1-3 1-4 neighbors ...
  special bond factors lj:   0          1          1         
  special bond factors coul: 0          0          0         
  3 = max # of 1-2 neighbors
  4 = max # of 1-3 neighbors
  8 = max # of 1-4 neighbors
  16 = max # of special neighbors
  special bonds CPU = 0.0192673 secs
  read_restart CPU = 0.180875 secs
Changing box ...
  orthogonal box = (-500 -500 -500) to (500 500 500)
  orthogonal box = (-500 -500 -500) to (500 500 500)
  orthogonal box = (-500 -500 -500) to (500 500 500)
Finding 1-2 1-3 1-4 neighbors ...
  special bond factors lj:   0          1          1         
  special bond factors coul: 0          0          0         
  3 = max # of 1-2 neighbors
  4 = max # of 1-3 neighbors
  8 = max # of 1-4 neighbors
  16848 = # of 1-3 neighbors before angle trim
  13200 = # of 1-3 neighbors after angle trim
  16 = max # of special neighbors
  special bonds CPU = 0.00182564 secs
1000 atoms in group rxnSites
Neighbor list info ...
  update every 1 steps, delay 1 steps, check yes
  max neighbors/atom: 2000, page size: 100000
  master list distance cutoff = 26.9
  ghost atom cutoff = 26.9
  binsize = 13.45, bins = 75 75 75
  2 neighbor lists, perpetual/occasional/extra = 1 1 0
  (1) pair lj/cut, perpetual
      attributes: half, newton on
      pair build: half/bin/newton
      stencil: half/bin/3d/newton
      bin: standard
  (2) fix bond/create/random, occasional, copy from (1)
      attributes: half, newton on
      pair build: copy
      stencil: none
      bin: none
Setting up Verlet run ...
  Unit style    : real
  Current step  : 300000000
  Time step     : 30
Per MPI rank memory allocation (min/avg/max) = 10.32 | 10.76 | 11.44 Mbytes
Step E_pair PotEng KinEng E_bond E_angle Temp Bonds 
300000000   -1296.9182    2246.5884    6491.2915   -492.70605    4036.2127    311.14356     7256 
301000000   -1275.5686    2337.8871    6608.1632   -424.74124    4038.1969    316.74551     7257 
302000000   -1289.3201    2242.9622    6452.7672   -458.29656    3990.5789    309.29699     7255 
303000000   -1301.3551    2305.2114    6487.1169   -450.51367    4057.0801    310.94346     7258 
304000000   -1258.4877    2218.3121    6417.3011   -430.59663    3907.3964    307.59702     7256 
305000000   -1298.4654    2306.6328    6478.8413   -457.06672    4062.1649    310.54679     7255 
306000000   -1311.5376    2227.1931    6612.6786   -467.88251    4006.6132    316.96194     7255 
307000000   -1331.0747    2235.5815    6518.6576   -448.55937    4015.2156    312.45528     7258 
308000000   -1300.1285    2210.7675    6487.8121   -469.93483    3980.8309    310.97678     7261 
309000000   -1285.7878    2216.5378    6398.1265    -495.3918    3997.7173    306.67793     7260 
310000000   -1376.7209    2265.1418    6527.9965   -429.44271    4071.3054    312.90292     7256 
311000000   -1378.2533    2136.4301     6400.115   -469.86142    3984.5448    306.77325     7254 
312000000   -1350.0244    2145.8778    6504.9125   -470.87968    3966.7818    311.79645     7260 
313000000   -1355.0603    2241.6795    6439.5437   -438.17837    4034.9181    308.66316     7256 
314000000   -1320.2224    2214.6532    6487.3547   -447.18757    3982.0632    310.95486     7256 
315000000   -1333.1203    2263.7268     6535.272   -452.65986    4049.5069    313.25165     7256 
316000000   -1290.1748    2219.2461    6377.4061   -523.55625    4032.9771    305.68475     7260 
317000000   -1339.6303    2224.3716    6439.7214   -486.79107    4050.7929    308.67168     7259 
318000000   -1299.1414    2358.9858    6501.0224   -413.06814    4071.1954    311.60999     7257 
319000000   -1326.3637    2251.4918    6371.2116   -471.59066    4049.4462    305.38783     7258 
320000000   -1354.7679    2195.3639    6366.9263   -482.06905    4032.2008    305.18243     7258 
321000000   -1362.6357    2189.4361     6529.242   -449.66001    4001.7318    312.96262     7257 
322000000   -1337.0165    2172.9486    6459.9404   -516.05475    4026.0198    309.64082     7262 
323000000   -1359.1479    2188.7235    6583.0348   -478.27102    4026.1424    315.54104     7256 
324000000   -1281.3106    2196.9949     6507.346   -538.70076    4017.0063    311.91309     7259 
325000000   -1323.2373    2304.7142    6410.5135   -450.41596    4078.3675    307.27167     7254 
326000000   -1286.5413    2227.7519    6387.0056   -412.89188     3927.185    306.14488     7249 
327000000   -1282.7002    2324.2184    6386.4641   -428.45854    4035.3772    306.11892     7255 
328000000   -1288.3131    2215.5975    6466.3144   -482.73444     3986.645    309.94635     7259 
329000000   -1281.4236    2248.2547    6484.7288   -472.59543    4002.2737    310.82899     7259 
330000000   -1270.0634    2253.2278    6506.9016   -423.63468    3946.9259    311.89179     7259 
331000000   -1329.2392    2310.5259    6532.9572    -428.1039     4067.869     313.1407     7258 
332000000   -1281.4147    2191.9477    6429.3492    -477.6003    3950.9627    308.17451     7251 
333000000   -1240.6866    2340.8036    6400.0804   -467.42897    4048.9191    306.77159     7254 
334000000   -1289.6909     2315.166    6523.1845    -449.0376    4053.8945    312.67227     7253 
335000000   -1266.4505    2194.3996    6439.7179   -438.61521    3899.4653    308.67151     7257 
336000000   -1243.0701    2349.5618     6390.844    -423.7828    4016.4147    306.32887     7254 
337000000   -1227.7617    2347.3683    6469.6775   -446.53627    4021.6662    310.10755     7254 
338000000   -1226.0298    2191.9864    6511.9934   -495.76932    3913.7855    312.13585     7253 
339000000   -1243.6655    2329.0342    6408.1254   -466.29279    4038.9925     307.1572     7258 
340000000    -1225.855    2304.1646    6452.6541   -469.51878    3999.5383    309.29158     7254 
341000000   -1271.9087    2304.9766    6550.8935   -420.63249    3997.5178    314.00043     7256 
342000000    -1255.588    2283.9661    6418.2174   -449.15753    3988.7116    307.64094     7251 
343000000   -1225.9759    2378.8131     6472.512   -414.07169    4018.8607    310.24341     7249 
344000000   -1247.7564    2323.8178    6510.7935   -412.65568    3984.2298    312.07834     7251 
345000000   -1270.2885    2283.7724    6592.2561    -433.7982    3987.8591    315.98304     7255 
346000000   -1289.0197    2210.7883    6386.9532   -485.35262    3985.1606    306.14237     7256 
347000000   -1289.6881    2186.0151    6418.0327   -492.68088     3968.384    307.63209     7255 
348000000   -1239.3251    2262.5795    6542.6928   -500.75262    4002.6572    313.60735     7256 
349000000   -1278.6045    2236.0426    6368.2504   -515.21742    4029.8645     305.2459     7253 
350000000   -1312.7271    2222.8981    6548.5956   -467.71904    4003.3443    313.89029     7255 
351000000   -1250.4919    2248.8886    6497.3584   -487.50823    3986.8887    311.43436     7258 
352000000   -1271.8962     2297.091    6483.8197   -403.24041    3972.2276    310.78542     7257 
353000000   -1279.0135    2336.2016    6536.5761   -392.71174    4007.9268    313.31416     7250 
354000000   -1289.4093    2242.4897    6374.2861   -456.35748    3988.2565    305.53521     7249 
355000000    -1320.438    2212.3336    6559.8555   -459.10928    3991.8809       314.43     7256 
356000000   -1298.3118    2204.0087    6378.2764   -499.18176    4001.5022    305.72647     7262 
357000000   -1330.4645    2262.7069    6460.4505   -435.85123    4029.0227    309.66527     7259 
358000000   -1314.9102    2299.1174    6373.3776   -538.91506    4152.9427    305.49166     7266 
359000000   -1305.6338    2076.2191    6476.2388   -571.61176    3953.4647    310.42205     7267 
360000000   -1336.4436    2121.1344    6480.4266   -484.57345    3942.1514    310.62278     7269 
361000000   -1349.4181    2197.5102    6396.7675   -448.61458    3995.5429    306.61279     7263 
362000000   -1341.2545    2176.7414    6427.9607   -491.78746    4009.7834    308.10796     7260 
363000000   -1296.8336    2166.2376    6530.2125   -518.02512    3981.0963    313.00914     7259 
364000000   -1306.8115    2252.7367    6576.2531   -494.90893    4054.4571    315.21598     7260 
365000000    -1318.833    2193.0396     6485.266   -475.72176    3987.5944    310.85475     7264 
366000000    -1284.591     2232.775    6536.5915   -552.36925    4069.7353     313.3149     7266 
367000000   -1276.4985    2191.3223    6518.5182   -547.19287    4015.0137     312.4486     7270 
368000000   -1292.0775    2121.5775    6489.2422   -521.07305    3934.7281    311.04533     7266 
369000000   -1281.5534    2155.0038    6378.0612    -544.7187    3981.2759    305.71615     7267 
370000000   -1254.9588     2271.373    6386.6253   -497.67638    4024.0082    306.12665     7264 
371000000   -1294.1338    2298.9806    6457.2071   -492.38591    4085.5003    309.50981     7265 
372000000   -1257.2207    2190.5088    6579.6456   -511.08845    3958.8179    315.37859     7269 
373000000   -1281.1124    2163.5501    6599.8169   -542.41663    3987.0791    316.34545     7266 
374000000   -1250.5061      2207.49    6586.4593   -524.77746    3982.7736    315.70519     7267 
375000000   -1251.6169    2344.1437    6458.5522   -464.48125    4060.2419    309.57428     7264 
376000000   -1292.2265    2202.4741     6345.979   -531.13641     4025.837    304.17837     7268 
377000000   -1289.5683    2165.7562    6551.2676   -503.26824    3958.5927    314.01836     7267 
378000000   -1280.1742    2250.0283    6520.8036   -522.36786    4052.5704    312.55815     7266 
379000000   -1290.6842    2190.6549    6402.4741   -536.10701    4017.4461    306.88633     7268 
380000000   -1269.2227    2188.6371    6385.3672   -522.50409     3980.364    306.06635     7267 
381000000   -1276.1132    2212.0697     6496.539   -507.67421    3995.8572    311.39508     7266 
382000000   -1260.2092    2353.0417     6433.615   -507.82342    4121.0744    308.37898     7262 
383000000   -1291.1978     2266.631     6481.855   -455.77082    4013.5996    310.69125     7263 
384000000   -1280.9768    2263.8909    6388.3645   -482.43928    4027.3069    306.21002     7263 
385000000   -1256.4101    2266.4321    6446.5616   -478.38306    4001.2252    308.99955     7263 
386000000   -1229.1163    2269.0707    6556.3932   -497.58509    3995.7721    314.26404     7260 
387000000   -1298.3386    2290.8031    6425.4054   -477.05501    4066.1967    307.98548     7261 
388000000   -1199.9142    2272.5796    6514.0614    -446.6539    3919.1477    312.23498     7263 
389000000   -1257.4355    2303.4336    6443.6469   -509.77743    4070.6465    308.85984     7262 
390000000     -1278.19    2290.1478     6596.248   -498.37445    4066.7122    316.17438     7261 
391000000   -1275.1757    2189.8675     6491.301   -506.32996    3971.3732    311.14401     7258 
392000000   -1273.0188    2365.6569    6399.1823   -386.12797    4024.8037    306.72854     7256 
393000000    -1255.589    2281.0274    6524.7432   -460.06506    3996.6815    312.74698     7252 
394000000   -1300.2531    2337.9585    6458.3521   -405.43178    4043.6435    309.56469     7258 
395000000   -1346.4257     2220.658      6503.95   -471.31389    4038.3976    311.75032     7260 
396000000   -1351.2662    2140.4495    6426.2689    -493.6916    3985.4073    308.02687     7258 
397000000   -1318.4099    2214.7851    6462.8484   -520.81488    4054.0099    309.78021     7260 
398000000   -1349.5097     2215.495    6517.8843   -471.07671    4036.0814    312.41822     7258 
399000000   -1281.3366    2253.4941    6442.4668   -502.18095    4037.0117    308.80327     7263 
400000000   -1263.7576    2247.8092    6481.2511   -531.70475    4043.2716     310.6623     7256 
Loop time of 20616.5 on 14 procs for 100000000 steps with 7000 atoms

Performance: 12572.443 ns/day, 0.002 hours/ns, 4850.479 timesteps/s
99.6% CPU use with 14 MPI tasks x no OpenMP threads

MPI task timing breakdown:
Section |  min time  |  avg time  |  max time  |%varavg| %total
---------------------------------------------------------------
Pair    | 2890.4     | 3212.5     | 3609.3     | 392.7 | 15.58
Bond    | 1058       | 1088.2     | 1138.5     |  64.2 |  5.28
Neigh   | 3157.8     | 3182.9     | 3216.6     |  27.4 | 15.44
Comm    | 6602.4     | 7317.8     | 8181.6     | 463.1 | 35.49
Output  | 0.46078    | 0.46097    | 0.46121    |   0.0 |  0.00
Modify  | 4126.4     | 4170.2     | 4306.7     |  85.8 | 20.23
Other   |            | 1644       |            |       |  7.98

Nlocal:    500 ave 533 max 451 min
Histogram: 2 0 1 1 1 1 2 1 0 5
Nghost:    612.857 ave 843 max 403 min
Histogram: 1 0 2 1 2 5 2 0 0 1
Neighs:    4637.64 ave 5530 max 3571 min
Histogram: 1 2 0 3 1 1 0 3 0 3

Total # of neighbors = 64927
Ave neighs/atom = 9.27529
Ave special neighs/atom = 7.35086
Neighbor list builds = 6166038
Dangerous builds = 0
System init for write_restart ...
System init for write_data ...
Total wall time: 5:43:37
