LAMMPS (5 Jun 2019)
Reading restart file ...
  restart file = 5 Jun 2019, LAMMPS = 5 Jun 2019
  restoring atom style full from restart
  orthogonal box = (-500 -500 -500) to (500 500 500)
  1 by 2 by 7 MPI processor grid
  restoring pair style lj/cut from restart
  restoring bond style hybrid from restart
  restoring angle style cosine from restart
  7000 atoms
  7256 bonds
  6600 angles
Finding 1-2 1-3 1-4 neighbors ...
  special bond factors lj:   0          1          1         
  special bond factors coul: 0          0          0         
  3 = max # of 1-2 neighbors
  4 = max # of 1-3 neighbors
  8 = max # of 1-4 neighbors
  16 = max # of special neighbors
  special bonds CPU = 0.00168073 secs
  read_restart CPU = 0.0578712 secs
Changing box ...
  orthogonal box = (-500 -500 -500) to (500 500 500)
  orthogonal box = (-500 -500 -500) to (500 500 500)
  orthogonal box = (-500 -500 -500) to (500 500 500)
Finding 1-2 1-3 1-4 neighbors ...
  special bond factors lj:   0          1          1         
  special bond factors coul: 0          0          0         
  3 = max # of 1-2 neighbors
  4 = max # of 1-3 neighbors
  8 = max # of 1-4 neighbors
  16848 = # of 1-3 neighbors before angle trim
  13200 = # of 1-3 neighbors after angle trim
  16 = max # of special neighbors
  special bonds CPU = 0.00101082 secs
1000 atoms in group rxnSites
Neighbor list info ...
  update every 1 steps, delay 1 steps, check yes
  max neighbors/atom: 2000, page size: 100000
  master list distance cutoff = 26.9
  ghost atom cutoff = 26.9
  binsize = 13.45, bins = 75 75 75
  2 neighbor lists, perpetual/occasional/extra = 1 1 0
  (1) pair lj/cut, perpetual
      attributes: half, newton on
      pair build: half/bin/newton
      stencil: half/bin/3d/newton
      bin: standard
  (2) fix bond/create/random, occasional, copy from (1)
      attributes: half, newton on
      pair build: copy
      stencil: none
      bin: none
Setting up Verlet run ...
  Unit style    : real
  Current step  : 300000000
  Time step     : 30
Per MPI rank memory allocation (min/avg/max) = 10.32 | 10.76 | 11.44 Mbytes
Step E_pair PotEng KinEng E_bond E_angle Temp Bonds 
300000000   -1296.9182    2246.5884    6491.2915   -492.70605    4036.2127    311.14356     7256 
301000000   -1306.0735    2247.1038      6511.69   -489.78481    4042.9622    312.12131     7260 
302000000   -1320.7766    2144.9131    6426.7283   -495.89547    3961.5852    308.04889     7262 
303000000   -1312.1658    2227.7802    6390.4832   -452.89378    3992.8398    306.31157     7258 
304000000   -1286.2707    2277.1106    6530.6031    -463.8634    4027.2447    313.02786     7256 
305000000   -1285.9656    2313.2405    6518.4326   -494.64228    4093.8484     312.4445     7259 
306000000   -1335.0406    2129.0891    6397.8437   -499.91939    3964.0491    306.66438     7258 
307000000   -1335.9266    2192.9316    6497.3846   -458.27701    3987.1352    311.43562     7259 
308000000   -1320.1638    2151.9816    6415.1235   -513.34966     3985.495    307.49264     7258 
309000000   -1371.7113    2229.7414    6441.0139    -496.2629    4097.7157    308.73363     7260 
310000000   -1329.7702    2161.7091    6474.0049   -479.98935    3971.4686    310.31497     7265 
311000000   -1282.3574    2263.5092    6478.8047   -486.33185    4032.1985    310.54504     7263 
312000000   -1307.8489    2228.1613    6547.5113    -475.5127    4011.5229    313.83831     7261 
313000000   -1335.6013     2139.195    6497.4797   -561.00936    4035.8057    311.44018     7265 
314000000   -1302.5451     2133.895    6462.7637   -545.30586    3981.7459    309.77615     7262 
315000000   -1280.3503    2247.8648    6493.1401   -517.66386     4045.879    311.23217     7264 
316000000   -1390.3764    2216.5519    6528.6666   -441.79505    4048.7234    312.93504     7262 
317000000   -1370.9471    2238.1956    6552.8143   -481.41225    4090.5549     314.0925     7261 
318000000   -1336.4402    2085.2847    6512.9106   -548.80478    3970.5297    312.17982     7261 
319000000   -1351.7636    2192.5987    6573.9135   -444.25033    3988.6127    315.10384     7261 
320000000   -1355.8178    2249.4491    6449.9404   -473.77662    4079.0435     309.1615     7261 
321000000   -1347.7474    2140.6294    6522.0772   -531.75471    4020.1316    312.61919     7263 
322000000   -1326.4872    2264.4559    6548.6394   -420.70624    4011.6493    313.89239     7261 
323000000   -1317.2843    2315.9606    6467.1892   -450.86856    4084.1134    309.98828     7262 
324000000    -1318.727    2203.5736    6565.1666   -458.59895    3980.8995    314.68458     7259 
325000000   -1332.2778     2212.327    6417.2535   -472.51018    4017.1149    307.59474     7260 
326000000    -1305.071    2177.0684    6383.7797   -532.30091    4014.4403    305.99026     7260 
327000000   -1306.9093    2188.0255    6388.2084   -484.19302    3979.1278    306.20253     7264 
328000000   -1263.4157    2243.2125     6452.431   -486.33543    3992.9636    309.28088     7258 
329000000    -1297.929    2262.6862    6405.6936   -430.95914    3991.5743    307.04064     7254 
330000000   -1349.4141    2156.8544    6410.5471   -495.26937    4001.5378    307.27328     7260 
331000000   -1326.6731    2225.2539    6545.9216   -456.46571    4008.3928    313.76212     7256 
332000000   -1325.6315    2200.6884    6460.0841   -437.66219    3963.9821    309.64771     7257 
333000000   -1264.1554    2227.4054    6436.5537     -528.202    4019.7628    308.51984     7261 
334000000   -1286.8255    2190.1461    6418.9926   -521.75621    3998.7278     307.6781     7261 
335000000    -1339.543    2148.5558    6527.6696    -480.0126    3968.1114    312.88725     7261 
336000000   -1336.4528     2142.321     6508.068   -560.27973    4039.0535     311.9477     7264 
337000000   -1288.7625    2200.3808    6496.8091   -519.31424    4008.4575    311.40803     7264 
338000000   -1342.6771    2283.2779    6506.3008   -428.58787    4054.5428    311.86299     7260 
339000000   -1365.3404    2062.5549    6439.1044    -579.0961    4006.9914     308.6421     7265 
340000000   -1304.4908    2249.8212    6435.1818   -433.17055    3987.4826    308.45408     7264 
341000000   -1353.0505    2179.0702     6492.054   -512.23933    4044.3601    311.18011     7263 
342000000   -1353.7306     2221.524    6481.7226   -487.14175    4062.3964     310.6849     7259 
343000000   -1329.0489     2269.864    6391.6242   -376.56417    3975.4771    306.36626     7256 
344000000   -1333.3791    2283.9475    6600.5839   -448.62144     4065.948    316.38221     7260 
345000000   -1278.0895    2317.2488     6461.569   -415.22657    4010.5649    309.71889     7251 
346000000   -1287.4543    2296.3726    6516.2665   -415.13411     3998.961    312.34067     7250 
347000000   -1295.3526    2249.2987    6369.9354   -442.67225    3987.3235    305.32666     7254 
348000000   -1264.0269    2245.3967    6412.6565   -511.72247     4021.146    307.37439     7258 
349000000   -1294.8823    2289.3787    6452.3034   -427.09998     4011.361    309.27476     7254 
350000000    -1281.979    2337.0173    6486.1086   -413.72693    4032.7232    310.89513     7252 
351000000   -1284.8578    2232.8994    6487.5137   -463.31797    3981.0751    310.96248     7258 
352000000   -1266.5546    2205.7666    6526.2094   -520.26827    3992.5894    312.81726     7262 
353000000   -1308.1659    2251.3133    6406.4425   -430.06301    3989.5421    307.07654     7261 
354000000   -1285.9419    2304.6404    6454.3654   -503.87206    4094.4544     309.3736     7262 
355000000     -1310.93    2198.0063    6497.6626   -482.58046    3991.5168    311.44894     7261 
356000000   -1348.4058    2145.0262    6424.8553    -479.9979    3973.4299    307.95911     7262 
357000000   -1358.8906    2261.0192    6549.6268   -465.32618     4085.236    313.93971     7261 
358000000   -1314.4886    2104.4177     6607.628    -551.2748    3970.1811    316.71986     7262 
359000000   -1316.3865    2271.9466    6440.8831   -443.44306    4031.7762    308.72736     7261 
360000000   -1324.4445    2291.6995    6381.2027   -471.46151    4087.6055    305.86673     7263 
361000000   -1310.8941    2254.3768    6483.1978   -520.34026    4085.6111    310.75561     7262 
362000000   -1325.1761    2200.6508    6420.5832   -453.03292    3978.8598    307.75434     7258 
363000000    -1324.762    2130.6383    6467.1601   -505.52715    3960.9274    309.98688     7256 
364000000    -1329.853    2160.6462    6441.9002    -439.8643    3930.3635    308.77611     7262 
365000000   -1403.9352    2093.5336    6458.0558   -523.03531    4020.5041    309.55049     7267 
366000000   -1352.1002    2127.7228     6390.835   -494.83113    3974.6541    306.32843     7262 
367000000   -1369.0413    2205.7861    6500.7215   -465.71549    4040.5428    311.59557     7264 
368000000   -1346.5181    2233.7651    6511.4332   -475.18309    4055.4663      312.109     7265 
369000000   -1390.5257    2110.2844    6444.6862   -528.96506    4029.7752    308.90965     7268 
370000000   -1330.6713    2256.9756    6500.7981   -483.88215     4071.529    311.59923     7269 
371000000   -1305.1525    2200.7556    6485.5268   -536.25735    4042.1654    310.86725     7265 
372000000   -1375.2778    2019.2152    6442.8553   -587.07057    3981.5635     308.8219     7267 
373000000   -1343.9227    2159.2329    6485.7407   -530.98438    4034.1399     310.8775     7266 
374000000   -1322.4638    2189.2131    6470.4781   -526.11796    4037.7949    310.14592     7263 
375000000    -1359.762    2214.3923    6483.5654   -454.28102    4028.4353    310.77323     7265 
376000000   -1318.7466    2134.0661    6413.9619   -486.15486    3938.9675    307.43696     7262 
377000000    -1346.892    2194.6886     6391.316   -444.41512    3985.9957    306.35149     7262 
378000000   -1338.9554     2249.418    6433.5334   -412.08562     4000.459    308.37507     7258 
379000000   -1312.1208    2085.8046    6432.4016   -494.98173    3892.9071    308.32082     7261 
380000000   -1338.7349    2172.6484    6564.3495   -536.24457    4047.6278    314.64541     7258 
381000000   -1321.5198     2248.284    6503.5799    -454.8231    4024.6269    311.73257     7259 
382000000   -1300.0871    2132.3441    6496.4957   -544.23762    3976.6688    311.39301     7265 
383000000   -1360.1008    2156.7341    6324.9277    -471.5456    3988.3805    303.16934     7262 
384000000   -1340.8111     2212.887    6448.6226   -439.01229    3992.7104    309.09833     7259 
385000000   -1354.9162    2169.1462    6385.4149     -435.388    3959.4503    306.06863     7260 
386000000    -1333.601    2148.8028    6449.0192   -465.10346    3947.5073    309.11735     7260 
387000000   -1376.8764    2163.5264    6425.8452   -453.27648    3993.6793    308.00656     7263 
388000000   -1370.0902    1942.6142    6440.1064   -607.10844    3919.8128    308.69013     7269 
389000000   -1390.7212    2217.8677    6439.3658   -419.64063    4028.2295    308.65463     7268 
390000000   -1335.2036    2115.1562    6418.0021   -511.58306    3961.9428    307.63062     7265 
391000000   -1359.8409    2008.3438    6468.7468   -543.42736     3911.612    310.06294     7262 
392000000   -1370.6355    2112.8455    6545.1237   -520.58096    4004.0619    313.72387     7262 
393000000   -1351.7919    2014.7309    6447.0883   -553.98655    3920.5093    309.02479     7267 
394000000   -1387.9662     2158.747     6488.331   -514.19222    4060.9054    311.00166     7267 
395000000    -1370.466    2085.0083    6454.0756   -555.13903    4010.6133    309.35971     7272 
396000000   -1374.3182    2141.0831    6431.4265   -546.28084    4061.6821    308.27408     7274 
397000000   -1375.1553    2054.5865    6477.6659   -566.69803    3996.4398    310.49045     7273 
398000000   -1449.6876    2148.1941     6484.142   -453.86212    4051.7438    310.80087     7269 
399000000   -1432.5186    2104.3079    6477.4149   -552.32743    4089.1539    310.47842     7268 
400000000   -1375.5071    2056.2046    6519.6187   -526.79868    3958.5104    312.50135     7268 
Loop time of 17305.3 on 14 procs for 100000000 steps with 7000 atoms

Performance: 14978.052 ns/day, 0.002 hours/ns, 5778.570 timesteps/s
99.5% CPU use with 14 MPI tasks x no OpenMP threads

MPI task timing breakdown:
Section |  min time  |  avg time  |  max time  |%varavg| %total
---------------------------------------------------------------
Pair    | 3182.9     | 3611.7     | 4060.3     | 374.3 | 20.87
Bond    | 1161.5     | 1203.2     | 1592.9     | 312.4 |  6.95
Neigh   | 3392.6     | 3413.2     | 3438.2     |  22.6 | 19.72
Comm    | 4206.2     | 4714.9     | 5357.8     | 372.8 | 27.25
Output  | 0.43325    | 0.43348    | 0.43366    |   0.0 |  0.00
Modify  | 3614.1     | 3625.2     | 3639.9     |  14.8 | 20.95
Other   |            | 736.8      |            |       |  4.26

Nlocal:    500 ave 517 max 478 min
Histogram: 2 1 1 1 0 1 3 0 2 3
Nghost:    614.571 ave 762 max 481 min
Histogram: 4 1 0 2 0 1 1 1 1 3
Neighs:    5033.36 ave 5875 max 3901 min
Histogram: 1 0 1 0 2 2 5 1 0 2

Total # of neighbors = 70467
Ave neighs/atom = 10.0667
Ave special neighs/atom = 7.39543
Neighbor list builds = 6166504
Dangerous builds = 0
System init for write_restart ...
System init for write_data ...
Total wall time: 4:48:25
